# Force coefficients
# dragDir     : (9.692928e-01 2.459096e-01 0.000000e+00)
# sideDir     : (0.000000e+00 0.000000e+00 -1.000000e+00)
# liftDir     : (-2.459096e-01 9.692928e-01 0.000000e+00)
# rollAxis    : (9.692928e-01 2.459096e-01 0.000000e+00)
# pitchAxis   : (0.000000e+00 0.000000e+00 -1.000000e+00)
# yawAxis     : (-2.459096e-01 9.692928e-01 0.000000e+00)
# magUInf     : 4.800000e+01
# lRef        : 6.000000e-01
# Aref        : 6.000000e-04
# CofR        : (0.000000e+00 0.000000e+00 0.000000e+00)
#
# Time        	Cd            	Cs            	Cl            	CmRoll        	CmPitch       	CmYaw         	Cd(f)         	Cd(r)         	Cs(f)         	Cs(r)         	Cl(f)         	Cl(r)         
1             	4.235181e+01	3.840714e-17	8.556526e+01	-7.130439e-02	-4.689043e+01	3.529317e-02	2.110460e+01	2.124721e+01	3.529317e-02	-3.529317e-02	-4.107796e+00	8.967306e+01
2             	-4.248602e+01	-2.492266e-17	-8.569557e+01	7.141297e-02	4.783030e+01	-3.540501e-02	-2.117159e+01	-2.131442e+01	-3.540501e-02	3.540501e-02	4.982518e+00	-9.067809e+01
3             	2.601548e+01	1.655273e-17	4.850727e+01	-4.042273e-02	-2.774608e+01	2.167957e-02	1.296732e+01	1.304816e+01	2.167957e-02	-2.167957e-02	-3.492446e+00	5.199972e+01
4             	-8.315174e+00	-7.143854e-18	-1.432489e+01	1.193741e-02	9.957937e+00	-6.929311e-03	-4.145649e+00	-4.169524e+00	-6.929311e-03	6.929311e-03	2.795493e+00	-1.712038e+01
5             	4.021124e-01	5.191812e-19	-1.590754e-01	1.325628e-04	-1.043373e+00	3.350937e-04	2.011888e-01	2.009237e-01	3.350937e-04	-3.350937e-04	-1.122911e+00	9.638354e-01
6             	2.378700e+00	1.454137e-18	4.142454e+00	-3.452045e-03	-1.781867e+00	1.982250e-03	1.185898e+00	1.192802e+00	1.982250e-03	-1.982250e-03	2.893601e-01	3.853094e+00
7             	-1.423001e+00	-1.986593e-18	-1.296412e+00	1.080343e-03	1.053111e+00	-1.185834e-03	-7.104202e-01	-7.125809e-01	-1.185834e-03	1.185834e-03	4.049054e-01	-1.701317e+00
8             	8.173800e-01	8.155119e-19	7.359406e-01	-6.132838e-04	-5.165296e-01	6.811500e-04	4.080767e-01	4.093033e-01	6.811500e-04	-6.811500e-04	-1.485593e-01	8.844999e-01
9             	2.400707e-01	-1.608157e-18	1.149677e+00	-9.580643e-04	-3.191111e-01	2.000589e-04	1.190773e-01	1.209934e-01	2.000589e-04	-2.000589e-04	2.557274e-01	8.939497e-01
10            	-5.558313e-03	1.372319e-19	5.315640e-01	-4.429700e-04	-1.089594e-01	-4.631928e-06	-3.222127e-03	-2.336187e-03	-4.631928e-06	4.631928e-06	1.568226e-01	3.747414e-01
11            	2.346488e-01	-1.389532e-19	3.949167e-01	-3.290972e-04	-1.248628e-01	1.955407e-04	1.169953e-01	1.176535e-01	1.955407e-04	-1.955407e-04	7.259558e-02	3.223211e-01
12            	2.265152e-01	-1.077863e-18	1.052418e+00	-8.770151e-04	-3.505515e-01	1.887627e-04	1.123806e-01	1.141346e-01	1.887627e-04	-1.887627e-04	1.756575e-01	8.767605e-01
13            	1.265730e-01	-1.984659e-19	7.184600e-01	-5.987167e-04	-2.159625e-01	1.054775e-04	6.268779e-02	6.388522e-02	1.054775e-04	-1.054775e-04	1.432675e-01	5.751925e-01
14            	1.643483e-01	-3.073732e-19	6.003480e-01	-5.002900e-04	-1.855628e-01	1.369569e-04	8.167387e-02	8.267445e-02	1.369569e-04	-1.369569e-04	1.146112e-01	4.857368e-01
15            	1.772146e-01	-5.178572e-19	8.629773e-01	-7.191478e-04	-2.743783e-01	1.476788e-04	8.788813e-02	8.932642e-02	1.476788e-04	-1.476788e-04	1.571104e-01	7.058669e-01
16            	1.784881e-01	-4.916794e-19	8.644184e-01	-7.203487e-04	-2.865553e-01	1.487401e-04	8.852371e-02	8.996441e-02	1.487401e-04	-1.487401e-04	1.456539e-01	7.187645e-01
17            	1.473741e-01	-4.366101e-19	7.471221e-01	-6.226017e-04	-2.419941e-01	1.228118e-04	7.306445e-02	7.430966e-02	1.228118e-04	-1.228118e-04	1.315670e-01	6.155551e-01
18            	1.502237e-01	-3.140271e-19	7.755298e-01	-6.462748e-04	-2.443734e-01	1.251864e-04	7.446556e-02	7.575811e-02	1.251864e-04	-1.251864e-04	1.433915e-01	6.321384e-01
19            	1.720048e-01	-4.505191e-19	8.732135e-01	-7.276779e-04	-2.862661e-01	1.433373e-04	8.527470e-02	8.673006e-02	1.433373e-04	-1.433373e-04	1.503407e-01	7.228728e-01
20            	1.701027e-01	-5.076309e-19	8.783034e-01	-7.319195e-04	-2.941667e-01	1.417522e-04	8.431942e-02	8.578326e-02	1.417522e-04	-1.417522e-04	1.449849e-01	7.333184e-01
21            	1.605577e-01	-3.222711e-19	8.624355e-01	-7.186962e-04	-2.866814e-01	1.337981e-04	7.956014e-02	8.099753e-02	1.337981e-04	-1.337981e-04	1.445363e-01	7.178992e-01
22            	1.595413e-01	-3.479121e-19	8.685245e-01	-7.237704e-04	-2.877691e-01	1.329511e-04	7.904689e-02	8.049443e-02	1.329511e-04	-1.329511e-04	1.464932e-01	7.220313e-01
23            	1.611324e-01	-4.560170e-19	8.870314e-01	-7.391929e-04	-2.917905e-01	1.342770e-04	7.982703e-02	8.130541e-02	1.342770e-04	-1.342770e-04	1.517253e-01	7.353062e-01
24            	1.633082e-01	-3.690743e-19	9.112406e-01	-7.593672e-04	-3.017841e-01	1.360902e-04	8.089474e-02	8.241348e-02	1.360902e-04	-1.360902e-04	1.538362e-01	7.574044e-01
25            	1.664432e-01	-3.193323e-19	9.240913e-01	-7.700760e-04	-3.107509e-01	1.387026e-04	8.245150e-02	8.399166e-02	1.387026e-04	-1.387026e-04	1.512947e-01	7.727966e-01
26            	1.638252e-01	-3.726837e-19	9.254658e-01	-7.712215e-04	-3.091371e-01	1.365210e-04	8.114139e-02	8.268383e-02	1.365210e-04	-1.365210e-04	1.535957e-01	7.718700e-01
27            	1.610135e-01	-3.666796e-19	9.401587e-01	-7.834656e-04	-3.111738e-01	1.341779e-04	7.972328e-02	8.129021e-02	1.341779e-04	-1.341779e-04	1.589056e-01	7.812531e-01
28            	1.630428e-01	-3.342432e-19	9.563873e-01	-7.969894e-04	-3.189653e-01	1.358690e-04	8.072442e-02	8.231840e-02	1.358690e-04	-1.358690e-04	1.592284e-01	7.971589e-01
29            	1.630354e-01	-3.368562e-19	9.598131e-01	-7.998443e-04	-3.200300e-01	1.358628e-04	8.071784e-02	8.231752e-02	1.358628e-04	-1.358628e-04	1.598765e-01	7.999366e-01
30            	1.617580e-01	-3.416371e-19	9.703434e-01	-8.086195e-04	-3.219794e-01	1.347983e-04	8.007038e-02	8.168762e-02	1.347983e-04	-1.347983e-04	1.631923e-01	8.071511e-01
31            	1.623778e-01	-3.412607e-19	9.865275e-01	-8.221063e-04	-3.288592e-01	1.353148e-04	8.036678e-02	8.201099e-02	1.353148e-04	-1.353148e-04	1.644046e-01	8.221229e-01
32            	1.618128e-01	-3.365786e-19	9.936673e-01	-8.280561e-04	-3.308145e-01	1.348440e-04	8.007834e-02	8.173445e-02	1.348440e-04	-1.348440e-04	1.660191e-01	8.276482e-01
33            	1.600358e-01	-3.398590e-19	9.994631e-01	-8.328859e-04	-3.305144e-01	1.333631e-04	7.918500e-02	8.085078e-02	1.333631e-04	-1.333631e-04	1.692172e-01	8.302460e-01
34            	1.598750e-01	-3.519653e-19	1.010861e+00	-8.423839e-04	-3.349329e-01	1.332291e-04	7.909510e-02	8.077987e-02	1.332291e-04	-1.332291e-04	1.704974e-01	8.403632e-01
35            	1.603885e-01	-3.526424e-19	1.022211e+00	-8.518425e-04	-3.392384e-01	1.336571e-04	7.934242e-02	8.104610e-02	1.336571e-04	-1.336571e-04	1.718671e-01	8.503439e-01
36            	1.594118e-01	-3.565138e-19	1.029592e+00	-8.579934e-04	-3.401955e-01	1.328432e-04	7.884793e-02	8.056392e-02	1.328432e-04	-1.328432e-04	1.746006e-01	8.549915e-01
37            	1.581350e-01	-3.706891e-19	1.037051e+00	-8.642090e-04	-3.420895e-01	1.317792e-04	7.820329e-02	7.993171e-02	1.317792e-04	-1.317792e-04	1.764359e-01	8.606149e-01
38            	1.579809e-01	-3.727528e-19	1.047928e+00	-8.732734e-04	-3.457744e-01	1.316508e-04	7.811719e-02	7.986374e-02	1.316508e-04	-1.316508e-04	1.781897e-01	8.697384e-01
39            	1.576033e-01	-3.730903e-19	1.055724e+00	-8.797699e-04	-3.475413e-01	1.313361e-04	7.792189e-02	7.968143e-02	1.313361e-04	-1.313361e-04	1.803207e-01	8.754032e-01
40            	1.565916e-01	-3.844142e-19	1.062731e+00	-8.856091e-04	-3.491154e-01	1.304930e-04	7.741020e-02	7.918142e-02	1.304930e-04	-1.304930e-04	1.822501e-01	8.804809e-01
41            	1.561602e-01	-3.866847e-19	1.073327e+00	-8.944393e-04	-3.524040e-01	1.301335e-04	7.718565e-02	7.897453e-02	1.301335e-04	-1.301335e-04	1.842596e-01	8.890676e-01
42            	1.555892e-01	-3.847448e-19	1.080686e+00	-9.005713e-04	-3.542838e-01	1.296577e-04	7.689403e-02	7.869518e-02	1.296577e-04	-1.296577e-04	1.860590e-01	8.946265e-01
43            	1.547511e-01	-3.934641e-19	1.087942e+00	-9.066187e-04	-3.558434e-01	1.289593e-04	7.646895e-02	7.828219e-02	1.289593e-04	-1.289593e-04	1.881278e-01	8.998146e-01
44            	1.539881e-01	-3.961629e-19	1.095636e+00	-9.130301e-04	-3.578906e-01	1.283234e-04	7.608103e-02	7.790709e-02	1.283234e-04	-1.283234e-04	1.899274e-01	9.057087e-01
45            	1.534710e-01	-3.950474e-19	1.104662e+00	-9.205517e-04	-3.604489e-01	1.278925e-04	7.581496e-02	7.765606e-02	1.278925e-04	-1.278925e-04	1.918821e-01	9.127799e-01
46            	1.529017e-01	-4.014803e-19	1.112458e+00	-9.270484e-04	-3.624654e-01	1.274181e-04	7.552380e-02	7.737790e-02	1.274181e-04	-1.274181e-04	1.937636e-01	9.186945e-01
47            	1.519429e-01	-4.052264e-19	1.118193e+00	-9.318279e-04	-3.636396e-01	1.266191e-04	7.503964e-02	7.690330e-02	1.266191e-04	-1.266191e-04	1.954571e-01	9.227364e-01
48            	1.512376e-01	-4.061064e-19	1.126928e+00	-9.391063e-04	-3.658645e-01	1.260313e-04	7.467967e-02	7.655788e-02	1.260313e-04	-1.260313e-04	1.975993e-01	9.293283e-01
49            	1.507380e-01	-4.112055e-19	1.134398e+00	-9.453320e-04	-3.680856e-01	1.256150e-04	7.442364e-02	7.631431e-02	1.256150e-04	-1.256150e-04	1.991136e-01	9.352848e-01
50            	1.499993e-01	-4.165526e-19	1.141513e+00	-9.512612e-04	-3.697714e-01	1.249994e-04	7.404841e-02	7.595093e-02	1.249994e-04	-1.249994e-04	2.009853e-01	9.405281e-01
51            	1.491328e-01	-4.189584e-19	1.148036e+00	-9.566966e-04	-3.711766e-01	1.242774e-04	7.360972e-02	7.552311e-02	1.242774e-04	-1.242774e-04	2.028413e-01	9.451946e-01
52            	1.484979e-01	-4.242490e-19	1.155581e+00	-9.629841e-04	-3.732549e-01	1.237482e-04	7.328596e-02	7.521193e-02	1.237482e-04	-1.237482e-04	2.045356e-01	9.510453e-01
53            	1.476814e-01	-4.286414e-19	1.160365e+00	-9.669710e-04	-3.744183e-01	1.230679e-04	7.287375e-02	7.480769e-02	1.230679e-04	-1.230679e-04	2.057644e-01	9.546009e-01
54            	1.469721e-01	-4.342403e-19	1.169456e+00	-9.745468e-04	-3.765360e-01	1.224767e-04	7.251148e-02	7.446058e-02	1.224767e-04	-1.224767e-04	2.081921e-01	9.612641e-01
55            	1.471471e-01	-4.387148e-19	1.180454e+00	-9.837118e-04	-3.799832e-01	1.226226e-04	7.258982e-02	7.455725e-02	1.226226e-04	-1.226226e-04	2.102438e-01	9.702103e-01
56            	1.460784e-01	-4.414576e-19	1.181717e+00	-9.847644e-04	-3.801658e-01	1.217320e-04	7.205441e-02	7.402394e-02	1.217320e-04	-1.217320e-04	2.106928e-01	9.710244e-01
57            	1.443265e-01	-4.478126e-19	1.186672e+00	-9.888931e-04	-3.806049e-01	1.202721e-04	7.117438e-02	7.315216e-02	1.202721e-04	-1.202721e-04	2.127310e-01	9.739407e-01
58            	1.445547e-01	-4.520958e-19	1.198946e+00	-9.991218e-04	-3.839750e-01	1.204623e-04	7.127825e-02	7.327649e-02	1.204623e-04	-1.204623e-04	2.154981e-01	9.834481e-01
59            	1.438896e-01	-4.536012e-19	1.200570e+00	-1.000475e-03	-3.846056e-01	1.199080e-04	7.094432e-02	7.294527e-02	1.199080e-04	-1.199080e-04	2.156793e-01	9.848904e-01
60            	1.426568e-01	-4.597741e-19	1.206543e+00	-1.005452e-03	-3.860243e-01	1.188806e-04	7.032293e-02	7.233383e-02	1.188806e-04	-1.188806e-04	2.172470e-01	9.892955e-01
61            	1.424491e-01	-4.635746e-19	1.216235e+00	-1.013529e-03	-3.885615e-01	1.187075e-04	7.021100e-02	7.223806e-02	1.187075e-04	-1.187075e-04	2.195560e-01	9.966791e-01
62            	1.420906e-01	-4.656697e-19	1.223215e+00	-1.019346e-03	-3.905770e-01	1.184088e-04	7.002594e-02	7.206463e-02	1.184088e-04	-1.184088e-04	2.210307e-01	1.002185e+00
63            	1.409756e-01	-4.691937e-19	1.225034e+00	-1.020862e-03	-3.907245e-01	1.174797e-04	6.946693e-02	7.150865e-02	1.174797e-04	-1.174797e-04	2.217928e-01	1.003242e+00
64            	1.396847e-01	-4.739678e-19	1.230743e+00	-1.025619e-03	-3.915753e-01	1.164039e-04	6.881671e-02	7.086795e-02	1.164039e-04	-1.164039e-04	2.237962e-01	1.006947e+00
65            	1.394593e-01	-4.756139e-19	1.237723e+00	-1.031436e-03	-3.935258e-01	1.162161e-04	6.869821e-02	7.076108e-02	1.162161e-04	-1.162161e-04	2.253359e-01	1.012388e+00
66            	1.389986e-01	-4.786081e-19	1.243957e+00	-1.036631e-03	-3.954560e-01	1.158322e-04	6.846268e-02	7.053594e-02	1.158322e-04	-1.158322e-04	2.265224e-01	1.017434e+00
67            	1.381454e-01	-4.826658e-19	1.249396e+00	-1.041164e-03	-3.967374e-01	1.151212e-04	6.803155e-02	7.011388e-02	1.151212e-04	-1.151212e-04	2.279608e-01	1.021436e+00
68            	1.372343e-01	-4.849304e-19	1.253846e+00	-1.044871e-03	-3.975281e-01	1.143619e-04	6.757228e-02	6.966203e-02	1.143619e-04	-1.143619e-04	2.293948e-01	1.024451e+00
69            	1.364252e-01	-4.873953e-19	1.258583e+00	-1.048819e-03	-3.985345e-01	1.136877e-04	6.716379e-02	6.926142e-02	1.136877e-04	-1.136877e-04	2.307571e-01	1.027826e+00
70            	1.357123e-01	-4.908024e-19	1.263710e+00	-1.053092e-03	-3.997434e-01	1.130936e-04	6.680308e-02	6.890926e-02	1.130936e-04	-1.130936e-04	2.321117e-01	1.031599e+00
71            	1.350012e-01	-4.937604e-19	1.268645e+00	-1.057204e-03	-4.008432e-01	1.125010e-04	6.644340e-02	6.855781e-02	1.125010e-04	-1.125010e-04	2.334794e-01	1.035166e+00
72            	1.342579e-01	-4.962512e-19	1.273349e+00	-1.061124e-03	-4.019738e-01	1.118816e-04	6.606784e-02	6.819009e-02	1.118816e-04	-1.118816e-04	2.347006e-01	1.038648e+00
73            	1.334287e-01	-4.992519e-19	1.277900e+00	-1.064917e-03	-4.030155e-01	1.111906e-04	6.564946e-02	6.777929e-02	1.111906e-04	-1.111906e-04	2.359347e-01	1.041966e+00
74            	1.325982e-01	-5.023000e-19	1.281958e+00	-1.068298e-03	-4.037317e-01	1.104985e-04	6.523078e-02	6.736737e-02	1.104985e-04	-1.104985e-04	2.372472e-01	1.044711e+00
75            	1.318286e-01	-5.051891e-19	1.286201e+00	-1.071835e-03	-4.045636e-01	1.098572e-04	6.484246e-02	6.698612e-02	1.098572e-04	-1.098572e-04	2.385371e-01	1.047664e+00
76            	1.310803e-01	-5.080812e-19	1.290526e+00	-1.075439e-03	-4.056087e-01	1.092336e-04	6.446471e-02	6.661558e-02	1.092336e-04	-1.092336e-04	2.396545e-01	1.050872e+00
77            	1.303967e-01	-5.108955e-19	1.294438e+00	-1.078698e-03	-4.064826e-01	1.086639e-04	6.411963e-02	6.627702e-02	1.086639e-04	-1.086639e-04	2.407363e-01	1.053701e+00
78            	1.295187e-01	-5.141836e-19	1.298036e+00	-1.081696e-03	-4.070541e-01	1.079323e-04	6.367768e-02	6.584107e-02	1.079323e-04	-1.079323e-04	2.419636e-01	1.056072e+00
79            	1.287369e-01	-5.174142e-19	1.302430e+00	-1.085358e-03	-4.079355e-01	1.072808e-04	6.328309e-02	6.545381e-02	1.072808e-04	-1.072808e-04	2.432794e-01	1.059150e+00
80            	1.279521e-01	-5.197854e-19	1.305709e+00	-1.088091e-03	-4.085649e-01	1.066268e-04	6.288796e-02	6.506415e-02	1.066268e-04	-1.066268e-04	2.442894e-01	1.061419e+00
81            	1.270665e-01	-5.229755e-19	1.308995e+00	-1.090829e-03	-4.091633e-01	1.058887e-04	6.244240e-02	6.462406e-02	1.058887e-04	-1.058887e-04	2.453343e-01	1.063661e+00
82            	1.263396e-01	-5.261283e-19	1.312342e+00	-1.093618e-03	-4.097568e-01	1.052830e-04	6.207618e-02	6.426342e-02	1.052830e-04	-1.052830e-04	2.464141e-01	1.065928e+00
83            	1.256492e-01	-5.289550e-19	1.315593e+00	-1.096327e-03	-4.103315e-01	1.047077e-04	6.172827e-02	6.392093e-02	1.047077e-04	-1.047077e-04	2.474649e-01	1.068128e+00
84            	1.248527e-01	-5.316934e-19	1.318458e+00	-1.098715e-03	-4.107194e-01	1.040439e-04	6.132765e-02	6.352508e-02	1.040439e-04	-1.040439e-04	2.485094e-01	1.069948e+00
85            	1.240104e-01	-5.346640e-19	1.321549e+00	-1.101291e-03	-4.112075e-01	1.033420e-04	6.090391e-02	6.310649e-02	1.033420e-04	-1.033420e-04	2.495671e-01	1.071982e+00
86            	1.232903e-01	-5.373710e-19	1.324542e+00	-1.103785e-03	-4.118138e-01	1.027419e-04	6.054138e-02	6.274895e-02	1.027419e-04	-1.027419e-04	2.504574e-01	1.074085e+00
87            	1.225570e-01	-5.400364e-19	1.327305e+00	-1.106087e-03	-4.122537e-01	1.021308e-04	6.017239e-02	6.238456e-02	1.021308e-04	-1.021308e-04	2.513986e-01	1.075906e+00
88            	1.217782e-01	-5.427139e-19	1.329780e+00	-1.108150e-03	-4.124626e-01	1.014818e-04	5.978095e-02	6.199725e-02	1.014818e-04	-1.014818e-04	2.524273e-01	1.077353e+00
89            	1.210761e-01	-5.452440e-19	1.332132e+00	-1.110110e-03	-4.127756e-01	1.008967e-04	5.942794e-02	6.164816e-02	1.008967e-04	-1.008967e-04	2.532903e-01	1.078842e+00
90            	1.203265e-01	-5.477724e-19	1.334568e+00	-1.112140e-03	-4.131052e-01	1.002721e-04	5.905110e-02	6.127538e-02	1.002721e-04	-1.002721e-04	2.541785e-01	1.080389e+00
91            	1.195959e-01	-5.500446e-19	1.337095e+00	-1.114246e-03	-4.135234e-01	9.966322e-05	5.868368e-02	6.091218e-02	9.966322e-05	-9.966322e-05	2.550243e-01	1.082071e+00
92            	1.188837e-01	-5.523679e-19	1.339059e+00	-1.115882e-03	-4.136701e-01	9.906975e-05	5.832597e-02	6.055773e-02	9.906975e-05	-9.906975e-05	2.558592e-01	1.083199e+00
93            	1.181294e-01	-5.547195e-19	1.341060e+00	-1.117550e-03	-4.137801e-01	9.844118e-05	5.794716e-02	6.018226e-02	9.844118e-05	-9.844118e-05	2.567500e-01	1.084310e+00
94            	1.174740e-01	-5.569103e-19	1.343064e+00	-1.119220e-03	-4.139474e-01	9.789503e-05	5.761780e-02	5.985624e-02	9.789503e-05	-9.789503e-05	2.575848e-01	1.085480e+00
95            	1.167422e-01	-5.588502e-19	1.344913e+00	-1.120761e-03	-4.142018e-01	9.728513e-05	5.725032e-02	5.949184e-02	9.728513e-05	-9.728513e-05	2.582550e-01	1.086658e+00
96            	1.159703e-01	-5.610099e-19	1.346788e+00	-1.122323e-03	-4.143493e-01	9.664189e-05	5.686281e-02	5.910745e-02	9.664189e-05	-9.664189e-05	2.590445e-01	1.087743e+00
97            	1.153058e-01	-5.629839e-19	1.348243e+00	-1.123536e-03	-4.142530e-01	9.608820e-05	5.652938e-02	5.877646e-02	9.608820e-05	-9.608820e-05	2.598685e-01	1.088375e+00
98            	1.146407e-01	-5.648612e-19	1.349533e+00	-1.124611e-03	-4.142365e-01	9.553388e-05	5.619571e-02	5.844494e-02	9.553388e-05	-9.553388e-05	2.605299e-01	1.089003e+00
99            	1.138978e-01	-5.668372e-19	1.351164e+00	-1.125970e-03	-4.143532e-01	9.491482e-05	5.582292e-02	5.807486e-02	9.491482e-05	-9.491482e-05	2.612286e-01	1.089935e+00
100           	1.132210e-01	-5.685733e-19	1.352229e+00	-1.126858e-03	-4.142174e-01	9.435080e-05	5.548362e-02	5.773734e-02	9.435080e-05	-9.435080e-05	2.618973e-01	1.090332e+00
101           	1.124870e-01	-5.704447e-19	1.353272e+00	-1.127726e-03	-4.139964e-01	9.373919e-05	5.511579e-02	5.737124e-02	9.373919e-05	-9.373919e-05	2.626394e-01	1.090632e+00
102           	1.117900e-01	-5.723847e-19	1.354635e+00	-1.128862e-03	-4.139514e-01	9.315830e-05	5.476612e-02	5.702384e-02	9.315830e-05	-9.315830e-05	2.633660e-01	1.091269e+00
103           	1.111752e-01	-5.739002e-19	1.355645e+00	-1.129704e-03	-4.139978e-01	9.264601e-05	5.445790e-02	5.671731e-02	9.264601e-05	-9.264601e-05	2.638245e-01	1.091820e+00
104           	1.103923e-01	-5.757696e-19	1.356246e+00	-1.130205e-03	-4.135680e-01	9.199354e-05	5.406592e-02	5.632633e-02	9.199354e-05	-9.199354e-05	2.645553e-01	1.091691e+00
105           	1.096878e-01	-5.774320e-19	1.356705e+00	-1.130587e-03	-4.131181e-01	9.140652e-05	5.371332e-02	5.597450e-02	9.140652e-05	-9.140652e-05	2.652342e-01	1.091470e+00
106           	1.092311e-01	-5.787687e-19	1.357345e+00	-1.131121e-03	-4.131054e-01	9.102590e-05	5.348442e-02	5.574666e-02	9.102590e-05	-9.102590e-05	2.655673e-01	1.091778e+00
107           	1.080813e-01	-5.814305e-19	1.358739e+00	-1.132282e-03	-4.127504e-01	9.006773e-05	5.290836e-02	5.517292e-02	9.006773e-05	-9.006773e-05	2.666189e-01	1.092120e+00
108           	1.078401e-01	-5.818019e-19	1.358409e+00	-1.132007e-03	-4.124453e-01	8.986679e-05	5.278807e-02	5.505208e-02	8.986679e-05	-8.986679e-05	2.667591e-01	1.091650e+00
109           	1.066219e-01	-5.842665e-19	1.357784e+00	-1.131487e-03	-4.112113e-01	8.885159e-05	5.217947e-02	5.444244e-02	8.885159e-05	-8.885159e-05	2.676808e-01	1.090103e+00
110           	1.061361e-01	-5.852010e-19	1.358473e+00	-1.132061e-03	-4.111229e-01	8.844677e-05	5.193600e-02	5.420012e-02	8.844677e-05	-8.844677e-05	2.681136e-01	1.090359e+00
111           	1.057634e-01	-5.865446e-19	1.358947e+00	-1.132456e-03	-4.110635e-01	8.813621e-05	5.174927e-02	5.401418e-02	8.813621e-05	-8.813621e-05	2.684099e-01	1.090537e+00
112           	1.044117e-01	-5.892593e-19	1.358732e+00	-1.132277e-03	-4.098690e-01	8.700972e-05	5.107356e-02	5.333811e-02	8.700972e-05	-8.700972e-05	2.694971e-01	1.089235e+00
113           	1.040889e-01	-5.892804e-19	1.357983e+00	-1.131653e-03	-4.093199e-01	8.674077e-05	5.091281e-02	5.317611e-02	8.674077e-05	-8.674077e-05	2.696718e-01	1.088312e+00
114           	1.029467e-01	-5.913118e-19	1.356965e+00	-1.130805e-03	-4.080760e-01	8.578889e-05	5.034253e-02	5.260414e-02	8.578889e-05	-8.578889e-05	2.704067e-01	1.086559e+00
115           	1.024381e-01	-5.925217e-19	1.357081e+00	-1.130901e-03	-4.076894e-01	8.536505e-05	5.008813e-02	5.234993e-02	8.536505e-05	-8.536505e-05	2.708513e-01	1.086230e+00
116           	1.016131e-01	-5.937738e-19	1.356334e+00	-1.130278e-03	-4.066943e-01	8.467759e-05	4.967628e-02	5.193683e-02	8.467759e-05	-8.467759e-05	2.714726e-01	1.084861e+00
117           	1.007755e-01	-5.951457e-19	1.355371e+00	-1.129476e-03	-4.056679e-01	8.397955e-05	4.925825e-02	5.151721e-02	8.397955e-05	-8.397955e-05	2.720178e-01	1.083354e+00
118           	9.989937e-02	-5.962768e-19	1.353937e+00	-1.128281e-03	-4.043414e-01	8.324947e-05	4.882140e-02	5.107797e-02	8.324947e-05	-8.324947e-05	2.726271e-01	1.081310e+00
119           	9.924642e-02	-5.974792e-19	1.353436e+00	-1.127863e-03	-4.036645e-01	8.270535e-05	4.849535e-02	5.075107e-02	8.270535e-05	-8.270535e-05	2.730532e-01	1.080382e+00
120           	9.814901e-02	-5.986607e-19	1.351463e+00	-1.126219e-03	-4.018815e-01	8.179084e-05	4.794829e-02	5.020072e-02	8.179084e-05	-8.179084e-05	2.738502e-01	1.077613e+00
121           	9.750495e-02	-5.997610e-19	1.350550e+00	-1.125458e-03	-4.010571e-01	8.125413e-05	4.762702e-02	4.987793e-02	8.125413e-05	-8.125413e-05	2.742179e-01	1.076332e+00
122           	9.639381e-02	-6.008193e-19	1.348188e+00	-1.123490e-03	-3.991206e-01	8.032818e-05	4.707342e-02	4.932040e-02	8.032818e-05	-8.032818e-05	2.749737e-01	1.073215e+00
123           	9.566998e-02	-6.018442e-19	1.346955e+00	-1.122463e-03	-3.979989e-01	7.972498e-05	4.671253e-02	4.895745e-02	7.972498e-05	-7.972498e-05	2.754787e-01	1.071476e+00
124           	9.486092e-02	-6.029401e-19	1.345417e+00	-1.121181e-03	-3.967232e-01	7.905077e-05	4.630928e-02	4.855164e-02	7.905077e-05	-7.905077e-05	2.759853e-01	1.069432e+00
125           	9.365694e-02	-6.038374e-19	1.342288e+00	-1.118573e-03	-3.943294e-01	7.804745e-05	4.570990e-02	4.794704e-02	7.804745e-05	-7.804745e-05	2.768146e-01	1.065473e+00
126           	9.300195e-02	-6.047921e-19	1.341211e+00	-1.117676e-03	-3.934314e-01	7.750163e-05	4.538330e-02	4.761865e-02	7.750163e-05	-7.750163e-05	2.771742e-01	1.064037e+00
127           	9.231647e-02	-6.059687e-19	1.339391e+00	-1.116159e-03	-3.920773e-01	7.693039e-05	4.504207e-02	4.727439e-02	7.693039e-05	-7.693039e-05	2.776184e-01	1.061773e+00
128           	9.121935e-02	-6.066677e-19	1.336374e+00	-1.113645e-03	-3.897971e-01	7.601612e-05	4.449603e-02	4.672332e-02	7.601612e-05	-7.601612e-05	2.783897e-01	1.057984e+00
129           	9.063839e-02	-6.075535e-19	1.335056e+00	-1.112547e-03	-3.888307e-01	7.553199e-05	4.420665e-02	4.643174e-02	7.553199e-05	-7.553199e-05	2.786975e-01	1.056359e+00
130           	8.979714e-02	-6.084919e-19	1.332658e+00	-1.110548e-03	-3.871027e-01	7.483095e-05	4.378802e-02	4.600912e-02	7.483095e-05	-7.483095e-05	2.792262e-01	1.053432e+00
131           	8.905814e-02	-6.091958e-19	1.330497e+00	-1.108748e-03	-3.855148e-01	7.421511e-05	4.342032e-02	4.563782e-02	7.421511e-05	-7.421511e-05	2.797337e-01	1.050763e+00
132           	8.851873e-02	-6.099597e-19	1.329180e+00	-1.107650e-03	-3.846014e-01	7.376561e-05	4.315172e-02	4.536702e-02	7.376561e-05	-7.376561e-05	2.799884e-01	1.049191e+00
133           	8.744532e-02	-6.105887e-19	1.325635e+00	-1.104696e-03	-3.820837e-01	7.287110e-05	4.261796e-02	4.482735e-02	7.287110e-05	-7.287110e-05	2.807336e-01	1.044901e+00
134           	8.697958e-02	-6.113060e-19	1.324248e+00	-1.103540e-03	-3.811125e-01	7.248298e-05	4.238625e-02	4.459333e-02	7.248298e-05	-7.248298e-05	2.810117e-01	1.043237e+00
135           	8.631387e-02	-6.118945e-19	1.322253e+00	-1.101878e-03	-3.797723e-01	7.192823e-05	4.205506e-02	4.425881e-02	7.192823e-05	-7.192823e-05	2.813543e-01	1.040899e+00
136           	8.536235e-02	-6.123058e-19	1.319010e+00	-1.099175e-03	-3.775255e-01	7.113529e-05	4.158200e-02	4.378035e-02	7.113529e-05	-7.113529e-05	2.819793e-01	1.037030e+00
137           	8.503841e-02	-6.128993e-19	1.317980e+00	-1.098316e-03	-3.768632e-01	7.086534e-05	4.142089e-02	4.361752e-02	7.086534e-05	-7.086534e-05	2.821266e-01	1.035853e+00
138           	8.433157e-02	-6.133198e-19	1.315334e+00	-1.096112e-03	-3.751665e-01	7.027631e-05	4.106967e-02	4.326190e-02	7.027631e-05	-7.027631e-05	2.825007e-01	1.032834e+00
139           	8.364322e-02	-6.136837e-19	1.312989e+00	-1.094157e-03	-3.735264e-01	6.970269e-05	4.072745e-02	4.291577e-02	6.970269e-05	-6.970269e-05	2.829680e-01	1.030021e+00
140           	8.323815e-02	-6.140625e-19	1.311490e+00	-1.092908e-03	-3.726358e-01	6.936513e-05	4.052617e-02	4.271198e-02	6.936513e-05	-6.936513e-05	2.831090e-01	1.028381e+00
141           	8.274297e-02	-6.143128e-19	1.309755e+00	-1.091462e-03	-3.715373e-01	6.895247e-05	4.028002e-02	4.246295e-02	6.895247e-05	-6.895247e-05	2.833402e-01	1.026415e+00
142           	8.225976e-02	-6.145776e-19	1.307583e+00	-1.089653e-03	-3.702632e-01	6.854980e-05	4.004023e-02	4.221953e-02	6.854980e-05	-6.854980e-05	2.835285e-01	1.024055e+00
143           	8.194844e-02	-6.149476e-19	1.306505e+00	-1.088754e-03	-3.695580e-01	6.829036e-05	3.988546e-02	4.206297e-02	6.829036e-05	-6.829036e-05	2.836945e-01	1.022810e+00
144           	8.152999e-02	-6.150684e-19	1.304494e+00	-1.087078e-03	-3.684270e-01	6.794166e-05	3.967792e-02	4.185207e-02	6.794166e-05	-6.794166e-05	2.838198e-01	1.020674e+00
145           	8.109426e-02	-6.152454e-19	1.302525e+00	-1.085438e-03	-3.672183e-01	6.757855e-05	3.946169e-02	4.163257e-02	6.757855e-05	-6.757855e-05	2.840444e-01	1.018481e+00
146           	8.089394e-02	-6.154775e-19	1.301337e+00	-1.084448e-03	-3.665882e-01	6.741161e-05	3.936252e-02	4.153142e-02	6.741161e-05	-6.741161e-05	2.840804e-01	1.017257e+00
147           	8.068376e-02	-6.155702e-19	1.300264e+00	-1.083553e-03	-3.660551e-01	6.723647e-05	3.925833e-02	4.142543e-02	6.723647e-05	-6.723647e-05	2.840766e-01	1.016187e+00
148           	8.032659e-02	-6.156789e-19	1.298237e+00	-1.081864e-03	-3.648063e-01	6.693883e-05	3.908143e-02	4.124516e-02	6.693883e-05	-6.693883e-05	2.843123e-01	1.013925e+00
149           	8.044316e-02	-6.155666e-19	1.298167e+00	-1.081806e-03	-3.654717e-01	6.703596e-05	3.913977e-02	4.130338e-02	6.703596e-05	-6.703596e-05	2.836117e-01	1.014555e+00
150           	8.037465e-02	-6.159991e-19	1.297592e+00	-1.081326e-03	-3.650479e-01	6.697887e-05	3.910600e-02	4.126865e-02	6.697887e-05	-6.697887e-05	2.837479e-01	1.013844e+00
151           	8.027433e-02	-6.161564e-19	1.295981e+00	-1.079984e-03	-3.639550e-01	6.689528e-05	3.905718e-02	4.121715e-02	6.689528e-05	-6.689528e-05	2.840355e-01	1.011945e+00
152           	8.017919e-02	-6.158760e-19	1.294663e+00	-1.078886e-03	-3.635504e-01	6.681599e-05	3.901071e-02	4.116848e-02	6.681599e-05	-6.681599e-05	2.837810e-01	1.010882e+00
153           	8.029530e-02	-6.162875e-19	1.294865e+00	-1.079054e-03	-3.638547e-01	6.691275e-05	3.906859e-02	4.122670e-02	6.691275e-05	-6.691275e-05	2.835777e-01	1.011287e+00
154           	8.035966e-02	-6.163914e-19	1.294475e+00	-1.078729e-03	-3.638863e-01	6.696639e-05	3.910110e-02	4.125856e-02	6.696639e-05	-6.696639e-05	2.833513e-01	1.011124e+00
155           	8.031249e-02	-6.162063e-19	1.293341e+00	-1.077784e-03	-3.634264e-01	6.692707e-05	3.907846e-02	4.123403e-02	6.692707e-05	-6.692707e-05	2.832440e-01	1.010097e+00
156           	8.048386e-02	-6.164957e-19	1.293062e+00	-1.077552e-03	-3.634219e-01	6.706989e-05	3.916438e-02	4.131948e-02	6.706989e-05	-6.706989e-05	2.831093e-01	1.009953e+00
157           	8.063418e-02	-6.164408e-19	1.292461e+00	-1.077051e-03	-3.633477e-01	6.719515e-05	3.924004e-02	4.139414e-02	6.719515e-05	-6.719515e-05	2.828827e-01	1.009578e+00
158           	8.074788e-02	-6.164881e-19	1.292130e+00	-1.076775e-03	-3.634109e-01	6.728990e-05	3.929717e-02	4.145071e-02	6.728990e-05	-6.728990e-05	2.826541e-01	1.009476e+00
159           	8.086285e-02	-6.166422e-19	1.291809e+00	-1.076507e-03	-3.633790e-01	6.738571e-05	3.935492e-02	4.150793e-02	6.738571e-05	-6.738571e-05	2.825254e-01	1.009284e+00
160           	8.112080e-02	-6.167268e-19	1.291736e+00	-1.076447e-03	-3.636024e-01	6.760066e-05	3.948395e-02	4.163684e-02	6.760066e-05	-6.760066e-05	2.822656e-01	1.009470e+00
161           	8.125628e-02	-6.166684e-19	1.291281e+00	-1.076068e-03	-3.635782e-01	6.771357e-05	3.955207e-02	4.170421e-02	6.771357e-05	-6.771357e-05	2.820625e-01	1.009219e+00
162           	8.150986e-02	-6.169132e-19	1.291198e+00	-1.075999e-03	-3.637183e-01	6.792488e-05	3.967893e-02	4.183093e-02	6.792488e-05	-6.792488e-05	2.818810e-01	1.009318e+00
163           	8.168438e-02	-6.168506e-19	1.290549e+00	-1.075457e-03	-3.635453e-01	6.807032e-05	3.976673e-02	4.191765e-02	6.807032e-05	-6.807032e-05	2.817292e-01	1.008820e+00
164           	8.197344e-02	-6.170233e-19	1.290534e+00	-1.075445e-03	-3.637833e-01	6.831120e-05	3.991128e-02	4.206217e-02	6.831120e-05	-6.831120e-05	2.814840e-01	1.009050e+00
165           	8.225569e-02	-6.170720e-19	1.290589e+00	-1.075490e-03	-3.640807e-01	6.854641e-05	4.005235e-02	4.220333e-02	6.854641e-05	-6.854641e-05	2.812136e-01	1.009375e+00
166           	8.249827e-02	-6.172292e-19	1.290410e+00	-1.075342e-03	-3.641368e-01	6.874856e-05	4.017379e-02	4.232448e-02	6.874856e-05	-6.874856e-05	2.810683e-01	1.009342e+00
167           	8.287217e-02	-6.174174e-19	1.290498e+00	-1.075415e-03	-3.644233e-01	6.906014e-05	4.036067e-02	4.251150e-02	6.906014e-05	-6.906014e-05	2.808259e-01	1.009673e+00