/*--------------------------------*- C++ -*----------------------------------*\
| =========                 |                                                 |
| \\      /  F ield         | OpenFOAM: The Open Source CFD Toolbox           |
|  \\    /   O peration     | Version:  v1912                                 |
|   \\  /    A nd           | Website:  www.openfoam.com                      |
|    \\/     M anipulation  |                                                 |
\*---------------------------------------------------------------------------*/
FoamFile
{
    version     2.0;
    format      ascii;
    class       volTensorField;
    location    "0";
    object      grad(U);
}
// * * * * * * * * * * * * * * * * * * * * * * * * * * * * * * * * * * * * * //

dimensions      [0 0 -1 0 0 0 0];


internalField   nonuniform List<tensor> 
2500
(
(0 0 0 0.266688 -2.2148e-05 7.66649e-06 0.268727 -9.4691e-06 2.35194e-05)
(-8.03647e-19 9.81015e-23 -2.45254e-23 0.245363 -7.03371e-06 -9.54357e-06 0.79275 -4.2984e-05 1.75259e-05)
(-1.51197e-18 4.61417e-23 0 0.251868 0.00010879 -4.40096e-05 1.29809 2.06864e-05 -8.30475e-05)
(-2.84461e-18 0 0 0.244902 0.000302629 -6.74714e-05 1.8532 0.000386832 -0.00030148)
(0 0 0 0.191418 0.000458927 -5.52394e-05 2.38053 0.00121161 -0.000602959)
(0 0 0 0.184134 0.000749428 -6.42697e-05 2.89883 0.00262785 -0.0009788)
(0 0 0 0.207337 0.00129279 -9.77243e-05 3.4668 0.00514764 -0.00148273)
(0 1.74023e-20 0 0.180391 0.00158566 -8.07618e-05 4.06629 0.00931643 -0.00208923)
(4.19077e-18 1.63702e-20 0 0.198552 0.00246162 -0.000118229 4.63252 0.0147916 -0.00272382)
(0 0 0 0.19492 0.00291096 -0.000122228 5.31098 0.023451 -0.00356611)
(0 0 -1.81076e-21 0.162516 0.00323992 -0.000101006 5.91922 0.0333888 -0.00441453)
(0 -5.45079e-20 0 0.183856 0.0046846 -0.000158122 6.60005 0.0474343 -0.00550534)
(0 0 0 0.178674 0.00597324 -0.000183032 7.29493 0.0670162 -0.00683166)
(0 0 0 0.148326 0.00615615 -0.000141434 8.00975 0.0925601 -0.00838805)
(-1.16157e-17 0 0 0.157775 0.00848633 -0.000185833 8.68671 0.122583 -0.00999105)
(0 1.70731e-19 -5.33535e-21 0.154884 0.00976425 -0.000191786 9.4692 0.165854 -0.011934)
(0 0 0 0.115789 0.00930671 -0.000101198 10.174 0.213405 -0.0136971)
(-9.66917e-18 -3.02162e-19 9.44255e-21 0.113103 0.010958 -9.46165e-05 10.8716 0.272896 -0.0152148)
(0 0 0 0.124573 0.0142733 -8.51392e-05 11.5474 0.341647 -0.0163241)
(0 0 8.35576e-21 0.104799 0.0137542 -3.92394e-05 12.246 0.42531 -0.0169473)
(0 0 0 0.0767059 0.0120124 2.1387e-05 12.8183 0.505032 -0.0169128)
(-1.5143e-17 0 0 0.0814343 0.0144514 8.99392e-05 13.3789 0.594515 -0.016218)
(1.4245e-17 0 0 0.0654781 0.0132021 0.000131882 13.8874 0.687776 -0.0148155)
(0 0 -6.54304e-21 0.0399802 0.00914957 9.53782e-05 14.2942 0.772518 -0.0129023)
(0 0 0 0.0308474 0.00801872 0.00012854 14.598 0.843821 -0.0108021)
(-2.37157e-17 0 5.78997e-21 0.0228132 0.0065206 0.000132726 14.8523 0.911663 -0.00814891)
(2.23092e-17 1.39433e-18 -2.72329e-21 0.0116615 0.00382712 9.68598e-05 15.0095 0.959661 -0.00560204)
(0 0 0 0.00631922 0.00235321 0.000134059 15.102 0.992585 -0.00302838)
(1.97416e-17 0 0 0.00112224 0.000444363 9.7143e-05 15.1346 1.00722 -0.000402977)
(-1.85708e-17 0 0 -0.00261891 -0.00142886 6.57359e-05 15.1212 1.00252 0.00158625)
(0 0 0 -0.00393169 -0.00245553 5.3805e-05 15.0743 0.978664 0.00333778)
(-1.64334e-17 0 -2.00603e-21 -0.00411188 -0.00333144 2.23009e-05 15.0196 0.9434 0.0043298)
(-1.54588e-17 0 0 -0.00352585 -0.00388613 1.1592e-05 14.9621 0.894247 0.00484518)
(0 0 0 -0.00174198 -0.00396028 -2.12656e-06 14.9253 0.84141 0.00485794)
(0 0 0 -0.000239024 -0.00380211 -3.16823e-06 14.9097 0.782509 0.00476369)
(0 -1.60853e-18 -3.14167e-21 0.00185197 -0.00373114 -5.48256e-06 14.9199 0.725056 0.00465618)
(0 0 0 0.00330604 -0.00336076 -8.32716e-06 14.9678 0.662704 0.00441924)
(0 0 0 0.00477513 -0.0027311 -1.79708e-05 15.0474 0.606715 0.00382452)
(0 6.69491e-19 2.6152e-21 0.00573322 -0.00232929 -2.16115e-05 15.1608 0.556059 0.00280417)
(2.01532e-17 0 0 0.00542861 -0.00186504 -5.69277e-06 15.2789 0.51794 0.00212037)
(-1.8958e-17 -5.92436e-19 -1.1571e-21 0.0044151 -0.00190642 3.14493e-06 15.3875 0.48014 0.00225398)
(0 0 0 0.00274385 -0.00183769 2.50288e-06 15.4706 0.436812 0.00245762)
(0 0 0 0.00170255 -0.00216252 6.80203e-06 15.5286 0.388584 0.00265281)
(-1.57811e-17 0 0 0.0010539 -0.00240795 5.24161e-06 15.5603 0.327182 0.00320088)
(-1.48452e-17 -2.31956e-19 -1.81215e-21 0.00166366 -0.00249327 -1.99747e-06 15.5858 0.258202 0.00319678)
(0 0 0 0.00327838 -0.00249996 -3.26309e-06 15.6567 0.184885 0.00300349)
(0 0 0 0.00476976 -0.00209033 -6.28125e-06 15.7872 0.111534 0.00282255)
(-2.4715e-17 -4.82714e-20 -1.50848e-21 0.00640524 -0.00164753 -1.05539e-05 15.9816 0.0464702 0.00207133)
(0 0 0 0.00652266 -0.00114432 -6.6736e-06 16.231 -0.00244732 0.00128327)
(0 0 0 0.00286838 0.000522837 -9.19173e-07 16.4632 -0.0369587 0.00104381)
(1.60729e-18 -2.45254e-23 9.81015e-23 0.794917 -2.95058e-05 3.43783e-05 0.245482 -3.31402e-06 3.63162e-05)
(0 0 0 0.738559 3.38566e-05 -9.0457e-05 0.740574 -1.38227e-05 1.52431e-05)
(1.13784e-17 3.47242e-22 -3.47242e-22 0.698839 0.00026825 -0.000241117 1.28653 3.4712e-05 -0.000234291)
(5.35181e-18 0 -1.30659e-21 0.669844 0.000688859 -0.000372526 1.7254 0.000235064 -0.000574093)
(-1.00688e-17 0 0 0.641336 0.00130771 -0.000486541 2.25408 0.000752002 -0.00119685)
(9.47168e-18 0 0 0.628494 0.00216844 -0.000597184 2.86457 0.0019413 -0.00218904)
(-1.78199e-17 0 0 0.613379 0.00337051 -0.000687578 3.40167 0.00373111 -0.00319336)
(0 0 0 0.592726 0.00477197 -0.000748058 3.98143 0.00677729 -0.00455222)
(0 0 1.53993e-20 0.574036 0.00626185 -0.000804443 4.63097 0.0117958 -0.00622651)
(0 0 0 0.559649 0.00794752 -0.000875921 5.14279 0.0171861 -0.00767419)
(-2.7908e-17 0 0 0.547499 0.00990922 -0.000973882 5.91747 0.0277251 -0.0104662)
(-2.62529e-17 0 0 0.528661 0.0126363 -0.00110078 6.51982 0.0386356 -0.0125869)
(0 0 0 0.50797 0.0159103 -0.00122972 7.12683 0.0539333 -0.0151402)
(2.32313e-17 3.6299e-19 0 0.491315 0.0192816 -0.001321 7.9227 0.0779139 -0.0195773)
(0 0 0 0.470517 0.0229246 -0.00135204 8.61322 0.105858 -0.0229635)
(4.11151e-17 0 0 0.44952 0.0270111 -0.00132637 9.3924 0.14295 -0.0280042)
(3.86767e-17 1.81297e-18 -7.55404e-20 0.420889 0.0314804 -0.00116777 10.0876 0.185607 -0.031556)
(-3.63829e-17 -1.13697e-18 0 0.381099 0.0350354 -0.000862399 10.7758 0.238352 -0.0347386)
(0 0 -6.68461e-20 0.339042 0.0369791 -0.000509187 11.4635 0.300549 -0.0373629)
(0 -2.01221e-18 6.28817e-20 0.300125 0.0381662 -0.000154832 12.0812 0.364671 -0.038892)
(0 0 0 0.262632 0.0385274 0.000192645 12.7947 0.451681 -0.0388754)
(5.69798e-17 1.78062e-18 -1.11289e-19 0.219336 0.0368126 0.000497377 13.2859 0.523283 -0.0375863)
(0 0 0 0.17722 0.0338731 0.000746676 13.7438 0.597069 -0.0348002)
(0 0 0 0.137932 0.0298269 0.000911803 14.19 0.679976 -0.0298414)
(-4.74314e-17 -2.96446e-18 4.63198e-20 0.100283 0.0245919 0.000989773 14.501 0.748224 -0.025433)
(0 0 0 0.0684694 0.0191187 0.00102294 14.7525 0.810515 -0.0188334)
(0 0 0 0.0405805 0.0130579 0.000974445 14.9084 0.856561 -0.0136482)
(0 0 0 0.0184073 0.00702403 0.000886401 15.0046 0.891517 -0.00668764)
(0 4.64269e-18 -2.26694e-21 0.00262978 0.00148805 0.000759703 15.032 0.905561 -0.00203032)
(6.98776e-17 4.36735e-18 0 -0.00759536 -0.00338095 0.000586693 15.0179 0.904876 0.0030499)
(0 0 0 -0.0125164 -0.00707478 0.000398736 14.9715 0.888467 0.00738128)
(-6.18351e-17 -3.86469e-18 -1.50964e-20 -0.0130103 -0.00947881 0.000212224 14.9107 0.856527 0.00985511)
(-5.81679e-17 -1.09065e-17 -2.84023e-20 -0.0100946 -0.0107249 6.69316e-05 14.8572 0.81787 0.0110134)
(-5.47182e-17 -3.41989e-18 -2.67179e-20 -0.00542813 -0.0110922 -8.47005e-06 14.8192 0.771425 0.0111533)
(0 0 0 -0.00054919 -0.0109782 -2.26143e-05 14.8027 0.720995 0.0110033)
(0 0 0 0.00494737 -0.0105582 -3.55034e-05 14.8118 0.669058 0.0107795)
(0 0 0 0.0109332 -0.00996262 -8.48651e-05 14.8535 0.617455 0.0102667)
(0 0 0 0.0155387 -0.00856964 -0.000152983 14.9432 0.560374 0.00871711)
(0 0 0 0.0172843 -0.00653289 -0.000150262 15.0486 0.518016 0.00661041)
(0 0 0 0.0158061 -0.00523457 -4.86194e-05 15.1703 0.480313 0.00500742)
(-7.13346e-17 -2.22921e-18 -1.74157e-20 0.0125168 -0.00521239 2.66215e-05 15.271 0.447327 0.00529712)
(-1.34208e-16 -2.097e-18 -2.45742e-20 0.00901568 -0.00573493 3.09079e-05 15.3532 0.40772 0.00578008)
(-6.31243e-17 -1.97264e-18 -1.54112e-20 0.00534924 -0.00634369 5.07252e-05 15.4116 0.361976 0.00627555)
(0 0 0 0.00315158 -0.00712755 3.61723e-05 15.4397 0.310347 0.00736307)
(1.11718e-16 0 1.36375e-20 0.00488999 -0.00730358 -1.12921e-05 15.4664 0.241139 0.00750832)
(0 0 0 0.0096601 -0.00700265 -2.12051e-05 15.534 0.176665 0.00707959)
(0 0 0 0.0149335 -0.00636957 -4.99985e-05 15.6627 0.108814 0.00666905)
(-4.64985e-17 0 -1.13522e-20 0.0189599 -0.00492072 -7.84305e-05 15.8564 0.0467866 0.0050392)
(4.37408e-17 0 0 0.0195042 -0.00338189 -5.01613e-05 16.1033 -0.00168643 0.00312807)
(8.22935e-17 -1.60729e-19 5.02279e-21 0.0092962 0.00142222 -1.17508e-05 16.3268 -0.0340834 0.00253741)
(0 0 0 1.29806 -4.01234e-05 6.32262e-05 0.249943 -1.2913e-05 6.39072e-05)
(-5.68921e-18 1.73621e-22 -1.73621e-22 1.28653 2.77519e-05 -0.000276379 0.694782 -5.8032e-05 4.83065e-05)
(0 0 -1.30659e-21 1.18249 0.000335742 -0.000600767 1.18246 -0.000114483 -0.000214967)
(0 0 0 1.09879 0.00092419 -0.000918973 1.74548 -0.000158328 -0.000899968)
(-1.89434e-17 0 0 1.13907 0.00185286 -0.00140505 2.20311 7.62237e-05 -0.00166846)
(0 0 0 1.08488 0.00305149 -0.00164303 2.75413 0.000581934 -0.00295976)
(0 0 0 1.02938 0.0048072 -0.00184794 3.30715 0.00158192 -0.0045904)
(0 0 0 1.03155 0.00710615 -0.00219982 3.91087 0.00354472 -0.00679368)
(0 0 0 0.958591 0.00921311 -0.00217879 4.43174 0.00650807 -0.00882142)
(0 0 0 0.980566 0.0125693 -0.00273036 5.17744 0.0118345 -0.0126519)
(0 0 0 0.960708 0.0155751 -0.00298122 5.74297 0.0181496 -0.0155449)
(-4.93919e-17 -1.92937e-19 9.64686e-20 0.838927 0.0187772 -0.00270738 6.42509 0.0277892 -0.0199122)
(4.64627e-17 0 0 0.893511 0.0258876 -0.00376728 7.13981 0.0423519 -0.0253624)
(0 0 0 0.864491 0.0309864 -0.00395778 7.75608 0.0593262 -0.0301499)
(-8.22301e-17 0 1.60606e-19 0.82155 0.0377473 -0.00401498 8.614 0.0873445 -0.0383589)
(0 1.20865e-18 0 0.783627 0.0435553 -0.00390614 9.25099 0.114895 -0.0438573)
(0 -1.13697e-18 0 0.667005 0.047115 -0.00281514 10.0013 0.153061 -0.0507735)
(-6.84504e-17 -2.13907e-18 2.67384e-19 0.629854 0.053907 -0.00230499 10.7076 0.198398 -0.0563728)
(0 0 0 0.588108 0.0589065 -0.00158593 11.4056 0.252012 -0.0605271)
(0 0 0 0.548346 0.063844 -0.000567231 11.9756 0.30519 -0.0623395)
(0 0 2.22577e-19 0.456088 0.0617003 0.000419573 12.5987 0.370014 -0.0626709)
(0 0 0 0.361278 0.0571756 0.001288 13.2211 0.444699 -0.059909)
(0 0 0 0.316829 0.0565846 0.00228677 13.6988 0.51399 -0.0550814)
(0 0 0 0.238423 0.0485888 0.00256581 14.0908 0.580051 -0.0484044)
(-8.92369e-17 -5.57731e-18 0 0.169141 0.0400213 0.00284025 14.3728 0.635683 -0.041818)
(-8.39446e-17 0 0 0.11751 0.0316086 0.0028895 14.6166 0.691154 -0.0327047)
(-7.89662e-17 -4.93539e-18 0 0.0666453 0.0214421 0.00274653 14.7782 0.735755 -0.0231614)
(0 0 0 0.0320195 0.012505 0.00254635 14.8708 0.768898 -0.0133752)
(0 0 0 0.00391741 0.00311223 0.00198049 14.9033 0.789204 -0.00274625)
(0 0 0 -0.0134039 -0.00439955 0.00178981 14.8859 0.792335 0.00508007)
(0 0 -3.01929e-20 -0.0220969 -0.0105509 0.00123413 14.8464 0.782825 0.0102303)
(0 0 0 -0.02242 -0.0145437 0.000615483 14.7861 0.761302 0.0147373)
(0 0 0 -0.0173685 -0.0166104 0.00021417 14.7226 0.728787 0.0173411)
(0 0 0 -0.00954699 -0.0176196 -1.89727e-06 14.6789 0.688087 0.017818)
(0 0 -9.45711e-20 -0.00134546 -0.0173855 -5.29061e-05 14.6634 0.650671 0.0176992)
(0 -5.6936e-18 0 0.00807943 -0.0166628 -9.75006e-05 14.6676 0.604935 0.0173593)
(0 0 0 0.0185969 -0.016117 -0.000250006 14.7122 0.555247 0.0162699)
(0 0 0 0.0263188 -0.0137691 -0.000425024 14.7806 0.515823 0.0144062)
(0 0 0 0.0293521 -0.0106794 -0.000413635 14.897 0.471974 0.0105397)
(7.13346e-17 2.22921e-18 0 0.0273144 -0.00880996 -0.000141534 14.9971 0.441705 0.00852772)
(0 0 0 0.0213411 -0.00857893 7.45471e-05 15.1049 0.407971 0.00867101)
(0 -3.94527e-18 -3.08224e-20 0.0149863 -0.00920693 8.81656e-05 15.1793 0.374717 0.00942718)
(0 0 0 0.00882357 -0.0100742 0.000135661 15.2334 0.335486 0.0102575)
(0 0 0 0.00525928 -0.011629 0.000103112 15.2619 0.287553 0.0119463)
(1.05093e-16 0 0 0.00838489 -0.0121509 -2.12061e-05 15.2815 0.230352 0.0124018)
(0 0 0 0.0164931 -0.0114739 -6.09348e-05 15.3438 0.169237 0.0116994)
(0 0 0 0.0252329 -0.0103868 -0.000135462 15.466 0.108003 0.011153)
(0 3.41725e-19 4.27157e-20 0.0328107 -0.00831334 -0.000225137 15.6652 0.046565 0.00849076)
(0 0 0 0.0331646 -0.00574535 -0.000152099 15.9139 -0.00218465 0.00538337)
(0 0 0 0.0150906 0.00237303 -3.36108e-05 16.1265 -0.0321168 0.0041894)
(0 0 0 1.8486 -0.000109929 0.000163921 0.22024 -1.98163e-05 0.000109382)
(-5.35181e-18 3.26648e-22 -3.26648e-22 1.72513 -7.67556e-05 -0.000376236 0.673857 -0.000158494 0.000198261)
(0 0 -2.45821e-21 1.74979 0.00016014 -0.00118332 1.09877 -0.000380853 -4.6546e-06)
(0 0 0 1.63631 0.000850819 -0.00174599 1.6363 -0.000656383 -0.00067735)
(0 0 0 1.52805 0.00194148 -0.00229423 2.21513 -0.000998836 -0.00194683)
(-3.35262e-17 0 0 1.54768 0.00339269 -0.00303131 2.64824 -0.00101428 -0.00316133)
(-3.15379e-17 -3.07987e-20 0 1.52024 0.00564933 -0.00369711 3.22291 -0.000736249 -0.00526724)
(0 5.79443e-20 0 1.42149 0.00834465 -0.00387549 3.73039 0.000172412 -0.0075464)
(0 0 0 1.4502 0.0119495 -0.00486569 4.31966 0.0018185 -0.0107084)
(5.25058e-17 0 0 1.41846 0.0154634 -0.00529902 5.11355 0.00561141 -0.0160068)
(0 0 0 1.30834 0.0195792 -0.00541107 5.58572 0.00917313 -0.0194357)
(0 0 0 1.33962 0.0265599 -0.00682115 6.32417 0.0172963 -0.0257772)
(0 0 0 1.23032 0.0328916 -0.00681122 6.99047 0.0289356 -0.0322144)
(-8.22301e-17 -6.42423e-19 1.60606e-19 1.24009 0.0420553 -0.00794261 7.71132 0.0435929 -0.0410227)
(0 -1.20865e-18 -3.02162e-19 1.19214 0.0495196 -0.00801428 8.41059 0.064146 -0.0489467)
(-7.27659e-17 -1.13697e-18 2.84242e-19 1.07322 0.0564354 -0.00692767 9.14523 0.0883122 -0.0586467)
(6.84504e-17 0 -2.67384e-19 1.04438 0.0669968 -0.00656689 9.86408 0.120549 -0.0668519)
(0 0 0 0.944508 0.0745381 -0.00481099 10.6057 0.161025 -0.0745028)
(0 0 0 0.816609 0.07702 -0.00278317 11.2067 0.20195 -0.0789416)
(-2.27919e-16 0 0 0.719164 0.079469 -0.000927512 11.9245 0.255142 -0.0824383)
(0 0 0 0.677904 0.084843 0.000980016 12.452 0.301838 -0.0824002)
(3.0253e-16 6.30272e-18 -7.8784e-19 0.566979 0.0820646 0.00287743 12.9779 0.359068 -0.079835)
(-1.89726e-16 -1.18579e-17 3.70558e-19 0.433369 0.0735776 0.00412639 13.4463 0.416413 -0.0743386)
(0 0 0 0.325109 0.0635013 0.00459752 13.8096 0.467561 -0.0670491)
(0 0 0 0.237543 0.053479 0.00507159 14.1861 0.532663 -0.0544284)
(0 0 0 0.168494 0.0437142 0.00561847 14.3977 0.57728 -0.0435575)
(-1.48566e-16 0 0 0.0998925 0.0311014 0.0054578 14.5651 0.622671 -0.0299543)
(1.39755e-16 8.7347e-18 0 0.0459433 0.0187234 0.00534309 14.6432 0.651857 -0.0180716)
(0 8.21668e-18 -1.60482e-20 0.00604651 0.00642825 0.00458457 14.6741 0.671511 -0.00670595)
(0 7.72938e-18 0 -0.0183527 -0.00450304 0.00309591 14.6599 0.679857 0.00406111)
(0 0 0 -0.0303791 -0.0125664 0.00214813 14.6117 0.677695 0.0132)
(0 0 0 -0.0340814 -0.0185669 0.00144265 14.5494 0.663563 0.01903)
(0 0 0 -0.0274028 -0.0223777 0.000576024 14.486 0.640661 0.0222593)
(2.90522e-16 1.21051e-17 2.83713e-19 -0.0144874 -0.0228055 4.94526e-05 14.4388 0.610164 0.0231758)
(0 0 0 -0.00223008 -0.0226626 -8.66038e-05 14.4132 0.576772 0.0232611)
(0 0 0 0.0112692 -0.0232466 -0.000224512 14.4132 0.539246 0.0228869)
(1.61225e-16 0 1.57447e-19 0.0249359 -0.021114 -0.000452471 14.4452 0.500876 0.021667)
(-3.03327e-16 -4.73949e-18 -7.40545e-20 0.0371207 -0.0183336 -0.000823984 14.5108 0.464403 0.0186507)
(0 0 0 0.0413029 -0.0147822 -0.000811382 14.6096 0.428261 0.0142651)
(0 0 0 0.0373858 -0.0118728 -0.000250557 14.7018 0.399825 0.0115146)
(0 0 0 0.0304786 -0.0117705 0.000112594 14.7946 0.371663 0.0115432)
(0 -7.42258e-18 0 0.020916 -0.0123886 0.000177885 14.8638 0.341628 0.0126851)
(0 0 0 0.0125808 -0.0138786 0.000268274 14.9139 0.306016 0.0139381)
(0 0 0 0.00708219 -0.015663 0.000215483 14.9359 0.260558 0.0161788)
(-1.9772e-16 0 -9.65429e-20 0.0110467 -0.0163502 -2.74074e-05 14.9479 0.212325 0.0167973)
(0 0 9.08173e-20 0.0228257 -0.0158271 -0.000112007 15.0062 0.157288 0.0158499)
(0 0 0 0.0366246 -0.014705 -0.000264741 15.1252 0.101189 0.0150839)
(0 0 0 0.0474869 -0.0119899 -0.000448302 15.309 0.0465069 0.0119295)
(-1.54826e-16 1.88997e-20 -3.77993e-20 0.0472917 -0.00814355 -0.000313865 15.529 0.00148377 0.00804816)
(0 2.84461e-19 -3.55576e-20 0.0216993 0.00330819 -8.20886e-05 15.7656 -0.031272 0.00560538)
(0 -1.63324e-22 0 2.35412 -0.000251429 0.000434738 0.203017 -3.82955e-05 0.000248552)
(0 1.2291e-21 -1.2291e-21 2.28399 -0.000383534 -0.00039262 0.645379 -0.000268127 0.000502519)
(0 0 0 2.19832 -0.000197368 -0.00150845 1.13908 -0.000775891 0.000355978)
(-1.78199e-17 2.17528e-21 8.70113e-21 2.21515 0.000293461 -0.00285142 1.56118 -0.0013403 -0.000158482)
(3.35262e-17 0 -1.63702e-20 2.1008 0.00149029 -0.00376095 2.13839 -0.00208426 -0.00147888)
(3.15379e-17 0 -3.07987e-20 1.97166 0.00326149 -0.0045615 2.66052 -0.00276537 -0.00322867)
(0 0 0 1.9294 0.00575653 -0.00549211 3.17094 -0.00318531 -0.00538156)
(-5.5816e-17 -1.09016e-19 1.09016e-19 1.89084 0.00907344 -0.00646743 3.66959 -0.00321583 -0.00812403)
(-5.25058e-17 0 0 1.97382 0.0131235 -0.00838831 4.34323 -0.0025133 -0.012512)
(-9.87838e-17 0 0 1.86493 0.0176488 -0.0088473 4.85285 -0.00151797 -0.0166874)
(0 0 0 1.74732 0.0230857 -0.00933767 5.62889 0.00210924 -0.0241264)
(0 0 0 1.69727 0.0307185 -0.0105288 6.22781 0.0067931 -0.0305697)
(8.22301e-17 0 -3.21211e-19 1.69664 0.0410376 -0.0126033 6.82188 0.014419 -0.0381596)
(0 0 0 1.63604 0.0498953 -0.0130869 7.67099 0.0285955 -0.0502477)
(0 0 0 1.55259 0.0604924 -0.0130135 8.18506 0.0398668 -0.0580407)
(0 0 0 1.4855 0.0705569 -0.0126065 8.99734 0.0631504 -0.0702952)
(0 0 0 1.32336 0.0796224 -0.00997412 9.67431 0.0864968 -0.0804176)
(0 0 0 1.20034 0.088277 -0.00748876 10.3031 0.114912 -0.0883137)
(0 0 0 1.11594 0.0964133 -0.00479407 10.9921 0.1498 -0.0954632)
(0 0 0 1.0228 0.101677 -0.0019278 11.6572 0.192987 -0.0992293)
(0 0 0 0.826455 0.0980403 0.00130586 12.222 0.234784 -0.0995942)
(0 0 0 0.690167 0.0949276 0.0039238 12.6919 0.273732 -0.0969576)
(-1.78474e-16 -5.57731e-18 6.97163e-19 0.579026 0.0906011 0.00628099 13.1191 0.318184 -0.0915171)
(-1.67889e-16 -5.24654e-18 6.55817e-19 0.457529 0.0828243 0.008435 13.5333 0.368641 -0.0816173)
(0 0 6.16924e-19 0.334278 0.0706973 0.00942616 13.8608 0.419768 -0.0692647)
(0 0 0 0.216506 0.0550283 0.00927233 14.0994 0.465633 -0.0543188)
(0 0 0 0.127303 0.039812 0.00903193 14.2494 0.503974 -0.0391696)
(0 -8.21668e-18 0 0.0573974 0.0237973 0.0079026 14.3337 0.534972 -0.0236368)
(0 -7.72938e-18 0 0.00782843 0.00924436 0.00677175 14.3607 0.555265 -0.010303)
(0 0 0 -0.0259942 -0.00302407 0.00590701 14.3474 0.568787 0.00304271)
(0 0 0 -0.0433529 -0.013577 0.00415981 14.2926 0.571626 0.0147972)
(0 0 0 -0.0450892 -0.0211368 0.00226519 14.2314 0.564735 0.0215309)
(-1.93682e-16 0 -1.89142e-19 -0.0361995 -0.0255605 0.000929991 14.161 0.551547 0.0260774)
(0 0 0 -0.0213387 -0.0278062 0.000164141 14.1073 0.532086 0.027643)
(0 0 0 -0.00539199 -0.0280266 -9.33774e-05 14.0729 0.502903 0.0279349)
(0 0 0 0.0123968 -0.0273113 -0.00031818 14.0589 0.474553 0.0276546)
(1.51664e-16 0 1.48109e-19 0.0314515 -0.0260764 -0.000810816 14.0752 0.446537 0.0261927)
(0 0 0 0.0467253 -0.022853 -0.00134962 14.1333 0.412786 0.0223535)
(0 0 0 0.0518018 -0.0182882 -0.00126085 14.1951 0.388985 0.0183594)
(-2.52497e-16 -7.89054e-18 -1.2329e-19 0.0477953 -0.0150805 -0.000455159 14.287 0.358113 0.0144113)
(0 0 0 0.038249 -0.0146229 0.000194225 14.3571 0.335979 0.0141429)
(0 0 0 0.0267304 -0.0156225 0.000324154 14.4193 0.308566 0.0156217)
(0 -3.28414e-18 -1.02629e-19 0.0155229 -0.0175117 0.000456516 14.4587 0.276911 0.0173464)
(1.9772e-16 0 9.65429e-20 0.00821551 -0.0197446 0.000356124 14.4721 0.238309 0.0199157)
(0 0 0 0.0140121 -0.0205549 -4.44525e-05 14.4765 0.195102 0.0209317)
(-1.74963e-16 -2.7338e-18 0 0.0299737 -0.0199905 -0.000193729 14.526 0.145811 0.0198488)
(0 0 1.60729e-19 0.0469005 -0.0183634 -0.000413684 14.6365 0.0950405 0.0189476)
(0 0 7.55986e-20 0.0600801 -0.0150833 -0.000702136 14.8023 0.0457698 0.0153784)
(0 0 0 0.0623176 -0.0107418 -0.000561335 15.0087 0.00206479 0.0106363)
(0 0 0 0.0297818 0.0040977 -0.000186531 15.2425 -0.030144 0.00693969)
(0 0 0 2.91652 -0.000495406 0.00112601 0.212193 -5.49304e-05 0.000433337)
(-9.47168e-18 0 -4.62485e-21 2.8479 -0.000960902 -0.000226917 0.624511 -0.000383175 0.00101286)
(0 0 0 2.7916 -0.00106512 -0.00192023 1.0849 -0.00106272 0.00109874)
(3.35262e-17 -8.1851e-21 0 2.69042 -0.00054272 -0.00366132 1.56 -0.00199029 0.000629682)
(0 0 0 2.62767 0.000497954 -0.00535519 1.9856 -0.0030043 -0.000235942)
(0 0 0 2.52323 0.00232481 -0.00670984 2.56061 -0.00437594 -0.00216568)
(1.11632e-16 6.81348e-21 -1.09016e-19 2.41585 0.00522052 -0.00803598 3.10946 -0.00573733 -0.00470645)
(0 0 0 2.39391 0.0088565 -0.0097916 3.70336 -0.00688261 -0.00842483)
(0 0 0 2.377 0.0132397 -0.0115659 4.27095 -0.00755725 -0.0129338)
(9.29253e-17 0 -1.81495e-19 2.36102 0.0187769 -0.0138246 4.76668 -0.00778674 -0.0176878)
(8.74143e-17 0 0 2.26732 0.0252756 -0.0151079 5.48158 -0.00648255 -0.0256597)
(8.22301e-17 3.21211e-19 -3.21211e-19 2.11932 0.0345141 -0.0159995 6.11332 -0.0040303 -0.0340021)
(0 0 -6.04323e-19 2.10881 0.0460416 -0.0188056 6.8298 0.00203415 -0.0450782)
(-2.91063e-16 -1.13697e-18 5.68483e-19 2.0323 0.0567552 -0.0195255 7.39934 0.00862198 -0.055089)
(0 1.06954e-18 0 1.90668 0.067963 -0.0188436 8.13351 0.0209754 -0.0680622)
(0 0 0 1.83352 0.0800955 -0.0183858 8.70255 0.0320663 -0.0786475)
(-1.21144e-16 0 9.46439e-19 1.67424 0.091761 -0.0153102 9.44406 0.0519554 -0.0915968)
(0 -3.56124e-18 0 1.54152 0.103074 -0.0116628 10.0943 0.073979 -0.101487)
(0 -3.35004e-18 0 1.39156 0.109905 -0.00748585 10.8054 0.103585 -0.109767)
(0 0 0 1.20834 0.113125 -0.00261049 11.2792 0.126428 -0.113104)
(0 0 0 1.07096 0.115361 0.00180498 11.8162 0.157326 -0.114209)
(3.56948e-16 1.11546e-17 0 0.886987 0.11162 0.00572708 12.3753 0.197306 -0.110926)
(1.67889e-16 5.24654e-18 -1.31163e-18 0.713068 0.105014 0.00920859 12.7845 0.232739 -0.104541)
(-1.57932e-16 -9.87078e-18 0 0.557065 0.0950727 0.0115155 13.1479 0.271596 -0.0943204)
(0 -9.28538e-18 5.80336e-19 0.404206 0.0818988 0.0130636 13.4017 0.304403 -0.0834181)
(0 0 0 0.277263 0.0671235 0.0139842 13.6333 0.343756 -0.0678254)
(0 0 0 0.16167 0.0492473 0.013475 13.7896 0.379727 -0.0508159)
(0 0 0 0.0737975 0.031453 0.0124964 13.8818 0.411282 -0.0329172)
(0 0 0 0.00949193 0.0143415 0.0107914 13.9162 0.438548 -0.0138433)
(-4.37745e-16 0 0 -0.0328098 -0.000863276 0.00854476 13.8999 0.455754 0.00162656)
(0 0 0 -0.0539382 -0.0132928 0.00594432 13.8554 0.464984 0.0132835)
(0 0 0 -0.0593766 -0.0223416 0.00363709 13.7855 0.467045 0.0225961)
(0 0 0 -0.050056 -0.0282213 0.00170888 13.7069 0.46143 0.0285543)
(-3.4278e-16 -1.07119e-17 -3.34746e-19 -0.0295975 -0.0309596 0.000374431 13.642 0.448234 0.03093)
(0 0 0 -0.0101043 -0.0318095 -8.13829e-05 13.5957 0.432651 0.0316941)
(0 0 2.96218e-19 0.0114018 -0.0317296 -0.000483083 13.5638 0.409919 0.03159)
(0 8.91682e-18 2.78651e-19 0.0351888 -0.0297826 -0.0011923 13.5673 0.387369 0.0298158)
(-2.68416e-16 -8.388e-18 -5.2425e-19 0.0529554 -0.025985 -0.00186472 13.5933 0.365866 0.0260707)
(0 0 0 0.0603521 -0.0215883 -0.00180809 13.6361 0.344572 0.0215689)
(0 0 0 0.0564764 -0.0181372 -0.000763144 13.696 0.319371 0.017472)
(0 0 0 0.045129 -0.01723 0.000239572 13.7515 0.2982 0.0166873)
(-2.10185e-16 -6.56828e-18 -2.05259e-19 0.0315335 -0.0185157 0.000511967 13.7959 0.276821 0.0182278)
(0 -6.17875e-18 0 0.0178125 -0.0207273 0.000687687 13.8215 0.250066 0.0203488)
(0 0 0 0.00872919 -0.0231685 0.000551923 13.8265 0.218987 0.0231679)
(0 0 0 0.0155525 -0.0243392 -2.65826e-05 13.8182 0.18161 0.0248808)
(0 0 0 0.0356785 -0.0239772 -0.000274216 13.8513 0.137625 0.0236712)
(0 1.20958e-18 1.51197e-19 0.0577017 -0.0223937 -0.00060262 13.9477 0.0920229 0.0227881)
(2.91288e-16 5.68921e-19 1.4223e-19 0.0743033 -0.0187279 -0.00104826 14.1044 0.0431712 0.0187872)
(0 0 0 0.0771122 -0.0133196 -0.000891356 14.3013 0.000219572 0.0130876)
(5.15524e-16 -5.03441e-19 1.2586e-19 0.0370604 0.00504303 -0.000326419 14.5082 -0.0286581 0.0082539)
(0 0 0 3.4727 -0.000835502 0.00239155 0.170444 -4.44712e-05 0.000619841)
(0 -4.35056e-21 0 3.39612 -0.00166056 0.000493344 0.613383 -0.000499766 0.00184627)
(0 0 0 3.3196 -0.00212477 -0.00193631 0.979302 -0.0012022 0.00232231)
(0 0 0 3.23689 -0.00191401 -0.00434206 1.48951 -0.00263568 0.00225636)
(0 0 0 3.1598 -0.00105117 -0.00669005 1.89452 -0.00392659 0.00165032)
(-1.11632e-16 5.45079e-20 5.45079e-20 3.097 0.000501031 -0.00901823 2.41582 -0.0059537 0.000138185)
(0 0 0 3.00626 0.00335157 -0.0113704 3.00605 -0.00845305 -0.0026512)
(0 0 0 2.92006 0.00741277 -0.0137457 3.66069 -0.0113236 -0.00707081)
(0 0 0 2.86332 0.0123281 -0.0161353 4.11819 -0.0129338 -0.0111942)
(0 0 0 2.80612 0.0184079 -0.0187334 4.67947 -0.0147012 -0.0171553)
(8.22301e-17 1.60606e-19 -6.42423e-19 2.7397 0.0257752 -0.0213615 5.31033 -0.0163556 -0.0254644)
(1.54707e-16 6.04323e-19 -6.04323e-19 2.63248 0.0364878 -0.024004 5.96465 -0.0164559 -0.035527)
(0 0 0 2.53837 0.0492185 -0.0264126 6.71514 -0.0144954 -0.049465)
(0 0 0 2.43248 0.0613318 -0.0271613 7.1718 -0.0113583 -0.0586727)
(0 0 0 2.30867 0.0739936 -0.0267066 7.94206 -0.00465486 -0.0750455)
(0 0 0 2.19414 0.0871448 -0.0253742 8.55736 0.00334336 -0.0881674)
(0 0 0 2.03549 0.10089 -0.0217124 9.15662 0.0134378 -0.100532)
(-2.14402e-16 -6.70007e-18 1.67502e-18 1.85218 0.112801 -0.0162495 9.79608 0.0278863 -0.111972)
(0 0 0 1.65401 0.120096 -0.0101073 10.305 0.0417811 -0.119178)
(0 0 0 1.45327 0.124401 -0.00386134 10.9441 0.0631033 -0.125108)
(-1.78474e-16 -5.57731e-18 0 1.26266 0.126056 0.00211723 11.4173 0.0836992 -0.125923)
(0 0 0 1.05509 0.123177 0.00752285 11.762 0.10208 -0.124163)
(0 0 1.23385e-18 0.852976 0.116758 0.012112 12.2242 0.132756 -0.116605)
(0 0 0 0.664235 0.106711 0.0154831 12.4896 0.155439 -0.109085)
(0 -8.7347e-18 0 0.486783 0.0932231 0.0177044 12.8046 0.191651 -0.0931615)
(2.62934e-16 0 0 0.331165 0.0771733 0.0188634 12.9927 0.221287 -0.0780316)
(0 0 0 0.196699 0.0585472 0.018717 13.1226 0.249419 -0.0621786)
(0 0 0 0.090855 0.0391577 0.0175396 13.2141 0.279857 -0.042536)
(0 0 0 0.0126871 0.0202436 0.0152791 13.2526 0.307236 -0.0229235)
(-2.05892e-16 -1.28683e-17 -5.02666e-20 -0.0398096 0.00318463 0.0122196 13.244 0.330208 -0.00496346)
(0 2.42102e-17 1.89142e-19 -0.0680915 -0.0110201 0.00875445 13.1986 0.347731 0.0102129)
(0 -2.27744e-17 0 -0.0753924 -0.0217595 0.00541391 13.1128 0.36058 0.0233943)
(0 0 3.34746e-19 -0.0638286 -0.0290707 0.00255238 13.0412 0.363323 0.02938)
(-3.22451e-16 0 -3.14893e-19 -0.0416272 -0.0329532 0.000744754 12.972 0.36083 0.0325775)
(0 -9.47898e-18 -5.92436e-19 -0.0188744 -0.0344619 2.61284e-05 12.8951 0.352125 0.0344077)
(0 8.91682e-18 5.57301e-19 0.00760479 -0.0344956 -0.00060889 12.8542 0.341391 0.034642)
(-2.68416e-16 -2.5164e-17 -5.2425e-19 0.0356854 -0.0326767 -0.00163302 12.8283 0.327349 0.0329575)
(0 0 0 0.0562831 -0.0288973 -0.00251636 12.8284 0.312401 0.0290794)
(2.37523e-16 0 0 0.0652846 -0.0244418 -0.00240756 12.8404 0.294662 0.0241658)
(0 0 0 0.0621661 -0.0208875 -0.00107872 12.8625 0.276365 0.0205081)
(0 0 0 0.0499809 -0.0196228 0.000274479 12.8934 0.256356 0.019275)
(3.9544e-16 0 1.93086e-19 0.03448 -0.0209176 0.000728386 12.912 0.240155 0.0207855)
(0 5.81231e-18 0 0.0187281 -0.023507 0.000970293 12.9212 0.21968 0.0233523)
(0 0 0 0.00789881 -0.0264265 0.000805135 12.9121 0.193917 0.0266031)
(0 0 0 0.0161592 -0.0280309 1.0754e-05 12.8914 0.162889 0.0288209)
(0 0 3.02394e-19 0.0410189 -0.0277452 -0.000376669 12.9095 0.124429 0.0276129)
(2.91288e-16 0 -2.84461e-19 0.067353 -0.0260457 -0.000804563 12.9972 0.0817499 0.0265305)
(0 0 0 0.0870652 -0.0221317 -0.00144376 13.1166 0.0414826 0.0226558)
(0 0 0 0.0914167 -0.0159576 -0.00132651 13.2926 0.000125404 0.0159445)
(0 0 0 0.0442513 0.00596751 -0.000526496 13.4702 -0.0262297 0.00985035)
(0 0 0 4.02814 -0.00126342 0.00466157 0.202391 -8.52366e-05 0.00117363)
(0 -4.09255e-21 0 3.94931 -0.00252744 0.00214384 0.588534 -0.000585158 0.00290213)
(0 0 0 3.90663 -0.00378252 -0.00135719 1.02858 -0.00175093 0.00409326)
(0 -2.89722e-20 0 3.79406 -0.00383767 -0.00443067 1.41164 -0.00306899 0.00443614)
(1.11632e-16 -2.72539e-20 -2.04404e-20 3.66976 -0.00324593 -0.00770788 1.95048 -0.00564229 0.00406716)
(-1.05012e-16 0 5.12752e-20 3.70361 -0.00250789 -0.0112384 2.43457 -0.00828746 0.00279515)
(-9.87838e-17 9.64686e-20 0 3.66072 -0.000189085 -0.0152106 2.93332 -0.0113959 0.000590086)
(0 0 0 3.44575 0.00456228 -0.0178408 3.4455 -0.0147215 -0.00292875)
(0 0 0 3.27338 0.0102184 -0.0204316 4.14076 -0.0198519 -0.00944779)
(0 0 0 3.35478 0.0158591 -0.0257068 4.68625 -0.0233901 -0.0163027)
(0 0 0 3.27506 0.0237885 -0.02951 5.23433 -0.0266683 -0.0245376)
(0 0 0 3.15216 0.0357553 -0.0336414 5.80528 -0.0294983 -0.0345575)
(0 0 0 2.95099 0.0494592 -0.0349733 6.37784 -0.0310081 -0.0465682)
(-1.28782e-16 -1.00611e-18 1.00611e-18 2.82559 0.0630101 -0.0360968 6.92907 -0.0317013 -0.0591698)
(0 0 0 2.76071 0.0768567 -0.0370663 7.70911 -0.0317744 -0.0785278)
(2.27919e-16 0 0 2.53373 0.090378 -0.0331235 8.27462 -0.0295028 -0.0924247)
(2.14402e-16 3.35004e-18 -1.67502e-18 2.34411 0.104848 -0.0282461 8.81473 -0.0259977 -0.105359)
(0 0 3.15136e-18 2.12869 0.117392 -0.0212587 9.33694 -0.0210981 -0.116515)
(1.89726e-16 5.92893e-18 -2.96446e-18 1.94164 0.126593 -0.0138459 9.91614 -0.0147909 -0.126921)
(0 0 0 1.71349 0.131954 -0.00574736 10.3019 -0.00588943 -0.131053)
(-6.71557e-16 0 2.62327e-18 1.41908 0.131799 0.00216475 10.8348 0.00595941 -0.133818)
(-6.3173e-16 -9.87078e-18 4.93539e-18 1.20757 0.130962 0.00938275 11.1921 0.0188004 -0.131715)