/*--------------------------------*- C++ -*----------------------------------*\
| =========                 |                                                 |
| \\      /  F ield         | OpenFOAM: The Open Source CFD Toolbox           |
|  \\    /   O peration     | Version:  2.3.x                                 |
|   \\  /    A nd           | Web:      www.OpenFOAM.org                      |
|    \\/     M anipulation  |                                                 |
\*---------------------------------------------------------------------------*/
FoamFile
{
    version     2.0;
    format      ascii;
    class       volSymmTensorField;
    location    "15000";
    object      TauDNS;
}
// * * * * * * * * * * * * * * * * * * * * * * * * * * * * * * * * * * * * * //

dimensions      [0 2 -2 0 0 0 0];

internalField   nonuniform List<symmTensor> 
2500
(
(1.884072440908391874e-07 -2.723164165231304763e-11 -4.144422576212759159e-11 5.190645505232582399e-11 -1.409021235586650197e-11 5.165748582050054243e-11)
(9.960596517109201969e-07 -7.671327866503189130e-10 -2.043241529680091372e-10 4.310787497043446479e-10 -2.732167549074716109e-11 1.272835073310140684e-10)
(1.706510771164273454e-06 -3.439263043030977812e-09 -2.001163732858277851e-10 2.556136626951413761e-09 -1.797416467540113156e-10 2.235009252975423348e-10)
(2.547525895226240999e-06 -1.116411615329115616e-08 -1.980969677500389959e-10 1.502995574048733482e-08 -1.443937877827029562e-09 5.325576604955553105e-10)
(3.002699878248795012e-06 -1.766682605045821532e-08 -3.388878618621060699e-10 3.739971103367331298e-08 -3.183637730270683688e-09 7.462643961511395929e-10)
(3.245032843935409484e-06 -2.165236530280322236e-08 -4.204199403657011225e-10 5.655040527232295886e-08 -3.984968232900340814e-09 8.035450575079785061e-10)
(3.668703923100123171e-06 -2.761223022587392165e-08 -7.798651294146881721e-10 1.140250175008864209e-07 -7.070686877870266215e-09 1.041640160824374839e-09)
(4.271221137583647829e-06 -3.543067562476050409e-08 -1.441969671150277064e-09 2.312648806575654294e-07 -1.242249122276306059e-08 1.371664443812267124e-09)
(4.599525862922071356e-06 -4.037154973261333887e-08 -1.681178624980400116e-09 3.130461402977922082e-07 -1.400831063535315858e-08 1.411077933212993803e-09)
(6.042387834868416792e-06 -6.658048636483246340e-08 -4.714040945036352892e-09 6.790777605672633554e-07 -2.636509329578422418e-08 2.000448469892876039e-09)
(6.585491282912260647e-06 -7.789333453856317720e-08 -5.435627625770349833e-09 8.336349097079425677e-07 -2.839925985719512071e-08 2.042669264554685531e-09)
(8.072817719306617912e-06 -1.089831584943754727e-07 -1.029921285239662278e-08 1.241751410433680702e-06 -3.650017567952441517e-08 2.371106707361689362e-09)
(1.016273212685981889e-05 -1.392095728564100748e-07 -1.977397238589942934e-08 1.805654778578839228e-06 -4.512653956270253521e-08 2.752431469610593053e-09)
(1.276205852617686627e-05 -1.390552606166059325e-07 -3.437683204127211390e-08 2.486725331586464792e-06 -5.291022428089753331e-08 3.153157256054957379e-09)
(1.412448419701166385e-05 -1.200383137142388307e-07 -3.875574078545749301e-08 2.857603317466400515e-06 -5.479980672282879254e-08 3.208090057040568720e-09)
(1.925709957174829608e-05 7.676438725551811547e-08 -7.434269812598424851e-08 4.136189261405710360e-06 -6.485669237397655140e-08 3.949996956414146723e-09)
(2.141038649282386971e-05 2.005921164787443960e-07 -8.344661666239230090e-08 4.699579018071888306e-06 -6.701574210964739577e-08 4.071908277667439226e-09)
(2.432688639790748364e-05 4.616465360387416877e-07 -9.689553111445088235e-08 5.466365345809812467e-06 -6.937616663063706472e-08 4.259319930099270803e-09)
(2.773749429545180074e-05 8.234123691007714073e-07 -1.128744993625304115e-07 6.381626222512047997e-06 -7.186831803154917895e-08 4.495864755234829140e-09)
(3.445901056535565475e-05 1.734374867627852437e-06 -1.435372638548873229e-07 8.250445992354735490e-06 -7.330337079158116459e-08 4.949178237132512317e-09)
(3.649568696791775436e-05 2.066854611015458198e-06 -1.465709806314214281e-07 8.903596631750521095e-06 -7.278485586240375276e-08 4.975355523939692896e-09)
(4.054601216982545121e-05 2.769444550500422979e-06 -1.546663139471101685e-07 1.021280528475725929e-05 -6.934733174598206403e-08 5.120906359370198504e-09)
(4.582286154578916050e-05 3.749236893833312211e-06 -1.571202655716561322e-07 1.208578103505595277e-05 -5.794543382265457417e-08 5.375135319863488675e-09)
(4.872134690403198611e-05 4.272539707295445414e-06 -1.534001291761849990e-07 1.323961710001992818e-05 -4.929046152465540180e-08 5.552591577994957374e-09)
(5.004414541086693840e-05 4.492523437491122379e-06 -1.518406889203952345e-07 1.381039092322621217e-05 -4.658407755308702102e-08 5.583348633816413708e-09)
(5.308153119043993682e-05 4.791297493146992709e-06 -1.414538871144632722e-07 1.511255208350119605e-05 -3.132507764595078549e-08 6.038842727301617899e-09)
(5.413744333560158780e-05 4.812419235634854026e-06 -1.391753518290933220e-07 1.558758896023416420e-05 -2.786162318992217465e-08 6.125311838224800657e-09)
(5.570197897724257492e-05 4.689555468927639770e-06 -1.357726744197837214e-07 1.627500246405549556e-05 -2.078820144961070510e-08 6.519490224319814204e-09)
(5.765847837572584826e-05 4.256650139380048348e-06 -1.346065237653194397e-07 1.715718200241896321e-05 -1.480468114526527210e-08 7.382698056988557365e-09)
(5.838101207709377611e-05 4.026813380499108205e-06 -1.348418055612966972e-07 1.750133696596734020e-05 -1.432762944674491474e-08 7.474608188373258441e-09)
(6.065203191785207041e-05 3.250530798524502878e-06 -1.416365817099803447e-07 1.843451197038582464e-05 -1.391853648549677754e-08 8.470944797059658290e-09)
(6.188498696482020670e-05 2.871917991518828984e-06 -1.451209056255271801e-07 1.888976586622466154e-05 -1.355599989806417971e-08 8.636332822080377692e-09)
(6.519697230042722743e-05 2.040368262100266090e-06 -1.647123954585096841e-07 1.988024416201758583e-05 -1.166054092120736099e-08 9.729872857360761087e-09)
(6.770736470538616498e-05 1.581828082223611670e-06 -1.784253602919250549e-07 2.060180669123781770e-05 -1.233488998889500163e-08 1.040765622900362164e-08)
(7.142094694167598222e-05 1.019780840454178768e-06 -1.968013290002390673e-07 2.175107445807662545e-05 -1.375244990523259646e-08 1.160614124911682028e-08)
(7.385069043552988113e-05 7.059128162279490569e-07 -2.054014216341486257e-07 2.252415456753155415e-05 -1.374451960054448408e-08 1.212202765445146651e-08)
(7.853908876054344513e-05 2.355582458596959172e-07 -2.247026724363114606e-07 2.391654450184767247e-05 -1.498761981756964990e-08 1.359547695597242532e-08)
(8.046630502811855231e-05 2.701441868235112128e-08 -2.288352023132511958e-07 2.451482637538970712e-05 -1.479487710936754250e-08 1.375411123782996313e-08)
(8.532640061770418777e-05 -3.631460337772864300e-07 -2.561832443482094446e-07 2.573852405264980274e-05 -1.333921567442828093e-08 1.509647974469189421e-08)
(8.922510889985758354e-05 -3.554457357003110220e-07 -2.744824677984586342e-07 2.676395137974346350e-05 -1.527026031024136189e-08 1.606156896225129850e-08)
(9.380956655789343701e-05 -1.920808751479031041e-07 -2.916861894483983108e-07 2.834463415858116549e-05 -1.016128485962284330e-08 1.774339134976434978e-08)
(9.642152864999037809e-05 -1.686489737427305789e-07 -3.042414041506854019e-07 2.929445403174058406e-05 -9.968325127555758286e-09 1.869104285330656815e-08)
(9.807001806737153404e-05 -2.549556152837397615e-07 -3.081840539179498633e-07 3.011262976600540247e-05 -9.408876720909845889e-09 1.920901029962443862e-08)
(1.012501245666745019e-04 -8.349376489062795423e-07 -3.186591934639729974e-07 3.131511628152070198e-05 -5.952264730212474221e-09 2.025868180462113790e-08)
(1.041914944558781843e-04 -1.019150622841215469e-06 -3.376445724167997798e-07 3.179195367189417546e-05 -3.076666113820472342e-09 2.092505615423184374e-08)
(1.080586099792484549e-04 -6.006776783101925151e-07 -3.594595121782781948e-07 3.248516467234096043e-05 -6.678882696225365206e-09 2.237108769926406612e-08)
(1.090205343649601954e-04 -5.109848251710230126e-07 -3.650501261742781244e-07 3.309847249215192440e-05 -4.954807291380795536e-09 2.309062791074223755e-08)
(1.100101785308012930e-04 -6.430781348439579192e-07 -3.781217428952074893e-07 3.344381477901419396e-05 -3.893063406022446487e-09 2.358135597807444183e-08)
(1.110597147742178089e-04 -2.741227463068232631e-07 -3.974705157969934571e-07 3.405797266567154647e-05 -8.128430093875829216e-09 2.405538312423049981e-08)
(1.103544844865074389e-04 1.151648544485870994e-07 -3.928051417957481574e-07 3.463718976323134036e-05 -4.781084494534502107e-09 2.387168892427062602e-08)
(1.021833914105319966e-06 -2.327362375048837051e-10 -8.549327647652377423e-10 1.305274673832171442e-10 -2.856381773331152256e-11 4.582827297887723531e-10)
(5.505894292216910873e-06 -4.646584229321417752e-09 -4.025169319938059411e-09 2.576630525509715916e-09 -6.034370603449486569e-10 2.632806951861832174e-09)
(1.030822080318574163e-05 -2.209147289938973191e-08 -5.879003787684861046e-09 1.932395279319399733e-08 -4.594926360959830078e-09 6.379887196360615736e-09)
(1.468444595408720967e-05 -5.389589314398064955e-08 -7.308393916690037107e-09 7.205710706143258551e-08 -1.610246458296045333e-08 1.188971148202478455e-08)
(1.831463540296005620e-05 -9.288437214744068180e-08 -9.476192360258433450e-09 1.881559317453753041e-07 -3.743135142778095582e-08 1.831571054276483274e-08)
(2.169971318411122424e-05 -1.355244245343374925e-07 -1.345759081660331225e-08 4.155045862648616913e-07 -7.258125251541680298e-08 2.578995279595681015e-08)
(2.523860854631943343e-05 -1.781798313574552032e-07 -1.988943364743882421e-08 8.289149229706357434e-07 -1.254546485507412204e-07 3.403582955725368801e-08)
(2.945848940837873025e-05 -2.296139842146619472e-07 -2.942786731922999338e-08 1.550058940872091481e-06 -1.976779325819634856e-07 4.253067415460098371e-08)
(3.469781615795381174e-05 -3.058745895122241123e-07 -4.493128807766431159e-08 2.622783048930407700e-06 -2.839481527762580685e-07 5.095259047933538374e-08)
(4.140265031630831894e-05 -4.229924968472687990e-07 -7.218297215610435680e-08 4.128034825838468305e-06 -3.831100904942101640e-07 5.952290526183081037e-08)
(4.995926891984448930e-05 -5.866449815189795555e-07 -1.190839926841944037e-07 6.137095823873240847e-06 -4.925346562061781747e-07 6.831437707814628351e-08)
(6.095168771342196912e-05 -7.969531314201854916e-07 -1.979153801206035531e-07 8.760830339557703524e-06 -6.104683058860900918e-07 7.758174068487624115e-08)
(7.532863580563358666e-05 -9.735560752648725959e-07 -3.367678940296017908e-07 1.214275142617683740e-05 -7.237385432081195980e-07 8.710734767804065138e-08)
(9.314455269103073343e-05 -9.818127453538916689e-07 -5.385857008386051015e-07 1.622878351108593780e-05 -8.335635062950776056e-07 9.746154756586006991e-08)
(1.144933560782571201e-04 -6.664982955647504842e-07 -8.037076885753933647e-07 2.101407135851416570e-05 -9.355920346678356051e-07 1.084754286795471781e-07)
(1.394384340564065153e-04 1.552645444525009828e-07 -1.128117700133806947e-06 2.651199233419535285e-05 -1.027459163729406009e-06 1.200041729242957547e-07)
(1.684875387181231316e-04 1.754711440009406622e-06 -1.509109592917207874e-06 3.286962907930070905e-05 -1.109610091561575228e-06 1.320502126710443519e-07)
(2.003394015140949017e-04 4.447792012316295905e-06 -1.893244712131749540e-06 3.999719797045483185e-05 -1.171307570462001678e-06 1.425991872103130484e-07)
(2.328655146234985063e-04 8.040475792603977471e-06 -2.229678234633509961e-06 4.763135073837943944e-05 -1.208333885590563155e-06 1.507475071182480818e-07)
(2.649999132141382359e-04 1.230025850683412230e-05 -2.498766630371332023e-06 5.564086991844289983e-05 -1.215300842584320934e-06 1.568332046717988615e-07)
(2.970650794241651098e-04 1.716945557731674099e-05 -2.700202914106856364e-06 6.420215825260095779e-05 -1.188722193102730572e-06 1.615313501742324982e-07)
(3.278837176807762491e-04 2.233888592881064049e-05 -2.824424784925453929e-06 7.310822728645287468e-05 -1.123354430757258876e-06 1.654040396152678179e-07)
(3.548991706514718946e-04 2.714205462022441191e-05 -2.872593182133639218e-06 8.160555116910951407e-05 -1.026902066147318241e-06 1.690550208995224347e-07)
(3.795889700080379617e-04 3.154442473753280506e-05 -2.855852293500325950e-06 9.004284014535717667e-05 -8.972189624566345386e-07 1.736068520363126663e-07)
(4.000343419231252424e-04 3.481962877607637155e-05 -2.788242836169949328e-06 9.757224502809721156e-05 -7.525164935378514177e-07 1.791011392813271817e-07)
(4.176119451099539722e-04 3.679231265467983164e-05 -2.688292409030823579e-06 1.043759306203724600e-04 -5.937018358161593525e-07 1.864969315712095259e-07)
(4.326687025157099778e-04 3.721876104404108859e-05 -2.600932517156926468e-06 1.102783348297981821e-04 -4.403259273067056753e-07 1.973541163523276479e-07)
(4.450333114816129153e-04 3.627711812041242289e-05 -2.557685861445425771e-06 1.151653789267485393e-04 -3.257205708305499350e-07 2.105106315089802282e-07)
(4.563257505618195566e-04 3.407768524461241510e-05 -2.549459519036893912e-06 1.197488505867525411e-04 -2.530050327066868853e-07 2.266170937828876088e-07)
(4.673211728602477428e-04 3.078733358007054369e-05 -2.576380506771140306e-06 1.241699697461749188e-04 -2.213775759874609305e-07 2.441076807464139912e-07)
(4.808309120921509545e-04 2.631348630759178478e-05 -2.667993316146399495e-06 1.290014485088493434e-04 -2.123616888366021195e-07 2.636987263997806481e-07)
(4.976589675947061791e-04 2.134452305284414766e-05 -2.838354204303782972e-06 1.340371656280883294e-04 -1.983221583904836823e-07 2.830790649360255213e-07)
(5.184136008394016814e-04 1.644024505242370462e-05 -3.102479854509677431e-06 1.392263058075886414e-04 -1.782725129038777792e-07 3.067226532894968808e-07)
(5.412521379461051555e-04 1.233406623802685256e-05 -3.394934229017078581e-06 1.447558868822633406e-04 -1.919912592015094309e-07 3.331635359797033062e-07)
(5.649994826034031520e-04 8.694480456088232647e-06 -3.646487634753185909e-06 1.510067615698321511e-04 -2.101552457710933269e-07 3.591841202224612200e-07)
(5.905075220926520865e-04 5.375183897905140402e-06 -3.898074656845512066e-06 1.577179717293300120e-04 -2.171289737399403413e-07 3.869502390334038303e-07)
(6.179944743064484658e-04 2.668495818502524977e-06 -4.141336234348835692e-06 1.647325927542789910e-04 -2.363968277144646713e-07 4.154742738992015373e-07)
(6.483472239834619502e-04 -5.444911604826348732e-07 -4.415628742944063950e-06 1.721900222529516682e-04 -2.245131647683190550e-07 4.457988666422087843e-07)
(6.815684511118796397e-04 -2.663440796262981662e-06 -4.837722063168768307e-06 1.789968480639442976e-04 -2.171332075369160528e-07 4.785522603723060258e-07)
(7.161562258362253906e-04 -2.422447942108425659e-06 -5.202332909622281214e-06 1.867845255567331759e-04 -2.521621345204072636e-07 5.110549694928150839e-07)
(7.425743506296348870e-04 -1.383118298232858708e-06 -5.415926579181117729e-06 1.947331563260312694e-04 -1.853095391469663888e-07 5.432961805437375152e-07)
(7.653777514683434173e-04 -9.863618822412106283e-07 -5.666019566074673237e-06 2.015828030365644189e-04 -1.643157986902508633e-07 5.779994722174290211e-07)
(7.824536682893003204e-04 -1.758259597809524254e-06 -5.788869994822736614e-06 2.086162823942757521e-04 -1.531947413676752738e-07 6.039674107586762962e-07)
(8.027955286829373000e-04 -5.493552444463241557e-06 -5.903057616666838395e-06 2.154366335366591167e-04 -1.099019233109931351e-07 6.247142517745736747e-07)
(8.336266691936907672e-04 -6.996221242524265757e-06 -6.403409714453971383e-06 2.194111187457513542e-04 -5.410732395824532566e-08 6.571910758116158056e-07)
(8.572290286335997652e-04 -4.357006489411725026e-06 -6.638553417383014916e-06 2.231442928973363118e-04 -9.816825233342257875e-08 6.854035417785596146e-07)
(8.663129291634289733e-04 -3.612552353433409605e-06 -6.753190335988261478e-06 2.272919662609523166e-04 -9.039033551461878628e-08 7.089709573875330374e-07)
(8.749519409461956401e-04 -4.517092522961611201e-06 -7.012689415687599363e-06 2.299915341496826834e-04 -6.980253640745157140e-08 7.258696304869171630e-07)
(8.826183804601466214e-04 -2.504340907176950846e-06 -7.258289766509521623e-06 2.336476916284204364e-04 -1.271690524426628812e-07 7.358673313447215420e-07)
(8.774838331761781974e-04 7.404287280924817687e-07 -7.240046302297975777e-06 2.382002071133844563e-04 -9.166767940054566563e-08 7.338824924265284083e-07)
(1.706601400410441135e-06 -3.441298510286428118e-10 -3.229307630039412548e-09 2.204466740122378056e-10 -1.745229629951614263e-10 2.601012128030524810e-09)
(1.030880059496864964e-05 -8.197031315919003801e-09 -1.888113032438950868e-08 6.264278212399290193e-09 -4.530067006829521319e-09 1.956224421552837229e-08)
(2.235443988098135420e-05 -4.744378819965671327e-08 -3.926229598632660473e-08 6.248438248334548272e-08 -3.806279191338370913e-08 6.322796228151659794e-08)
(3.167182809894259670e-05 -1.063525409966199965e-07 -4.932950161365370685e-08 1.789177621416410063e-07 -8.085282213883505838e-08 9.228094299139939551e-08)
(4.173885254349449930e-05 -1.919072007848449364e-07 -6.746158849618087571e-08 4.817836057787740738e-07 -1.862938856613215759e-07 1.475796463099897214e-07)
(5.291560462712517230e-05 -2.976653900181582663e-07 -9.796156249232354073e-08 1.167655896966730935e-06 -3.973839255270015850e-07 2.283462408483947074e-07)
(6.257675006327007147e-05 -3.946096626763749751e-07 -1.267844877799507952e-07 2.137246157302532732e-06 -6.132476173485275353e-07 2.853045313264059648e-07)
(7.578737450859286370e-05 -5.349357224711948371e-07 -1.795258500675852361e-07 3.989043953689128996e-06 -9.626761264573574691e-07 3.609594153241701693e-07)
(9.272808354894151181e-05 -7.558947118522570400e-07 -2.736593002797046575e-07 6.816615562331188616e-06 -1.394812430054584028e-06 4.381731337192130764e-07)
(1.095078811178942302e-04 -1.026832534736431327e-06 -3.806378124105251618e-07 1.008345787436346985e-05 -1.742902499644836371e-06 4.846598525695062476e-07)
(1.431658560417273338e-04 -1.542367633134626626e-06 -7.784158660589305080e-07 1.623050499624722074e-05 -2.438265388558209781e-06 5.947927541669320675e-07)
(1.707272959418417997e-04 -2.006584874476985810e-06 -1.089502942303783906e-06 2.192257854996931991e-05 -2.854693273070753101e-06 6.451162452401458378e-07)
(2.069371789671631929e-04 -2.363634551690189327e-06 -1.630158235661993396e-06 2.930703617276362590e-05 -3.257671653574347777e-06 6.961872271932688197e-07)
(2.739450298155088879e-04 -2.196406693157291775e-06 -3.070959683117222457e-06 4.134470320104950312e-05 -3.965825351053093250e-06 8.211359752600784128e-07)
(3.273659569513972818e-04 -1.332942169589126823e-06 -4.086585783581306605e-06 5.172198307668939129e-05 -4.326002615518604837e-06 8.790411598867646000e-07)
(4.228507827796417840e-04 2.059076543910715894e-06 -6.477490377391355010e-06 6.814513338507093845e-05 -4.904997222317013862e-06 1.013229940511055074e-06)
(4.939504441390510023e-04 5.852841277223359853e-06 -7.895746181763099792e-06 8.166064953971038942e-05 -5.191866537541429661e-06 1.074168273216627430e-06)
(5.775214834027641089e-04 1.254132444141784276e-05 -9.517033449413713972e-06 9.761900828767938233e-05 -5.433420272232841938e-06 1.135689323328215850e-06)
(6.720258440934827500e-04 2.195561294881878892e-05 -1.126053552149440171e-05 1.160527396188875445e-04 -5.629930533565888091e-06 1.198289091941804449e-06)
(7.737242379539250583e-04 3.407892528143900750e-05 -1.291029191392582361e-05 1.367680768700103324e-04 -5.709999108656686126e-06 1.250676981197039961e-06)
(8.912280806310346037e-04 5.023815163522983346e-05 -1.446585813933950493e-05 1.618384330339694998e-04 -5.564009765873302151e-06 1.293691470202232052e-06)
(9.663792348532534472e-04 6.218134333353517911e-05 -1.498342851320463635e-05 1.809459237485901357e-04 -5.343511921175491782e-06 1.310925374871754187e-06)
(1.051115477175542604e-03 7.611892709082066269e-05 -1.541257529981608057e-05 2.031934220884659085e-04 -4.893445233626306848e-06 1.334889360318611726e-06)
(1.137225726409906140e-03 9.018019082722313051e-05 -1.548015330645393116e-05 2.275226354438443749e-04 -4.130294339711372129e-06 1.375192770110348922e-06)
(1.188975254186946983e-03 9.813128860727954035e-05 -1.528845671175003626e-05 2.445178058822944671e-04 -3.607295197121306562e-06 1.402368997797239472e-06)
(1.250532619026739102e-03 1.045526875185047986e-04 -1.485642382426050730e-05 2.645155906043430982e-04 -2.667567452333992475e-06 1.478518963162546447e-06)
(1.287361945319489024e-03 1.058423024853806093e-04 -1.459422511571815658e-05 2.775494142905311702e-04 -2.127835204974828190e-06 1.532120932583378090e-06)
(1.330826689543659382e-03 1.032274484065802921e-04 -1.446588751756058440e-05 2.922387058718310410e-04 -1.438826280607990435e-06 1.670604301687446833e-06)
(1.358275652177211041e-03 9.835608817080197688e-05 -1.447135435475432124e-05 3.023073065823515511e-04 -1.171863067536132595e-06 1.751757961972050960e-06)
(1.390855715758817319e-03 8.951576787122520851e-05 -1.464387035148031110e-05 3.136510985317792757e-04 -9.744029852833537682e-07 1.881379399767521349e-06)
(1.435107524512970086e-03 7.580557994961735209e-05 -1.527356994398870651e-05 3.265534291915074636e-04 -8.580844952698774736e-07 2.060614040150131419e-06)
(1.484417980466450245e-03 6.202935740598635611e-05 -1.621029876869628164e-05 3.385151359099987573e-04 -7.835545737362165437e-07 2.202436521951232505e-06)
(1.545104619053446577e-03 4.843503830129303818e-05 -1.756159892734618125e-05 3.508677496509015627e-04 -7.168813528514536968e-07 2.376590459189040441e-06)
(1.609045023503973427e-03 3.696955162280094939e-05 -1.894526179730228056e-05 3.636190092224067224e-04 -7.644104980504122317e-07 2.556162226510066474e-06)
(1.683816838441879382e-03 2.537076836421623592e-05 -2.046636073908759192e-05 3.790496827227746992e-04 -8.511970334010274669e-07 2.777573843465418744e-06)
(1.751774869002336232e-03 1.661921409081877437e-05 -2.163397172648858218e-05 3.938064660803050100e-04 -9.008636098958147894e-07 2.947215689323070624e-06)
(1.834083153647133885e-03 8.386152686088857103e-06 -2.300380427046706870e-05 4.108359607662420286e-04 -9.983765018202432375e-07 3.164749140809862935e-06)
(1.927371811642867271e-03 -1.075682435238382229e-06 -2.459762225560750953e-05 4.288683478367270332e-04 -9.351632950237474213e-07 3.408809091354858022e-06)
(2.020847071811970961e-03 -6.752833255855345722e-06 -2.662566800264408857e-05 4.443001906826661747e-04 -9.182714406133670624e-07 3.627224794955162762e-06)
(2.126082003299179131e-03 -5.998656275793715343e-06 -2.867276660550147996e-05 4.630210314100794908e-04 -1.089512307497482538e-06 3.876287389371144792e-06)
(2.205950734032065090e-03 -2.722804128668498038e-06 -2.989641964877544583e-05 4.824244715896237575e-04 -8.047800372221579080e-07 4.128032268124521323e-06)
(2.270205166550677729e-03 -1.575729646336539718e-06 -3.111545476297153205e-05 4.987809873716615282e-04 -7.199320663983925685e-07 4.361109023555624671e-06)
(2.318180572234046586e-03 -3.491898368779406244e-06 -3.176701810674977867e-05 5.148301624895106456e-04 -6.927671728826659167e-07 4.533588671728303680e-06)
(2.372712577135966533e-03 -1.282209218809548397e-05 -3.224250749090791334e-05 5.302995711068207154e-04 -5.251496549945789692e-07 4.650837689681362020e-06)
(2.468056569227799601e-03 -1.726501170832255564e-05 -3.492483680214480203e-05 5.401273832379457733e-04 -2.332817860340994044e-07 4.907981130199506973e-06)
(2.535467428604035092e-03 -1.015528107721723670e-05 -3.598905723293348427e-05 5.490666509581836963e-04 -4.510728922164486128e-07 5.097505679547361861e-06)
(2.559666003756981209e-03 -8.945033441435977582e-06 -3.651747578302283232e-05 5.582959069809346857e-04 -4.323255533992854775e-07 5.244854286829672101e-06)
(2.582929062632443803e-03 -1.084588752052981851e-05 -3.771179628143264228e-05 5.649038158857900898e-04 -4.006873633890189258e-07 5.355437406712219988e-06)
(2.604176260936830883e-03 -5.564380256104829634e-06 -3.899592954100672285e-05 5.749048198130980464e-04 -6.299968336981376341e-07 5.427698242748714351e-06)
(2.591246122024153976e-03 1.625865812408209571e-06 -3.893593357719983913e-05 5.854589477027720163e-04 -4.809886550172372916e-07 5.407092878165747484e-06)
(2.548240452823675807e-06 -5.180639539750779403e-10 -9.856618703680044888e-09 5.223077545023762669e-10 -1.397697779309493280e-09 1.506360104954476394e-08)
(1.461864380578938523e-05 -1.104856338924125054e-08 -4.579613077520699220e-08 1.151436308212294416e-08 -1.537511302320050373e-08 7.073186844584126966e-08)
(3.167616017543059017e-05 -6.026807674197405303e-08 -9.193743097765245154e-08 9.103814451877360423e-08 -8.026311545699628704e-08 1.800767787844221450e-07)
(5.246248574603342324e-05 -1.635400601017399330e-07 -1.601967871791765156e-07 3.963590204925957449e-07 -2.971818484927503511e-07 4.004569348111930999e-07)
(6.853994436774549118e-05 -2.836944320863139853e-07 -2.029871544585763511e-07 8.870707817198180640e-07 -5.183162625013686397e-07 5.348214924304007139e-07)
(8.831920792224164519e-05 -4.369324338899316921e-07 -2.795437478598824507e-07 1.963160657138283646e-06 -9.743187267755434621e-07 7.700720114946695196e-07)
(1.099618592940884124e-04 -6.084464872080413908e-07 -3.764909217271982306e-07 3.816488941783824193e-06 -1.611327820670002687e-06 1.016287785735960632e-06)
(1.381803274232460766e-04 -8.588387372008050990e-07 -5.347479106691062481e-07 7.127465365495823850e-06 -2.537115727437926841e-06 1.300966678312354360e-06)
(1.656367137671122664e-04 -1.189040893685603683e-06 -7.141283467650559191e-07 1.126848428388464591e-05 -3.333447500771445916e-06 1.472751183294404253e-06)
(2.194907851439843066e-04 -1.832242038373070403e-06 -1.335430069767057870e-06 1.907917251595193770e-05 -4.925355430153608359e-06 1.853780571359973624e-06)
(2.639572845252331204e-04 -2.487292917639028258e-06 -1.881798572243819106e-06 2.678054828078635011e-05 -5.933128373281813266e-06 2.028729521392241891e-06)
(3.346708982506403922e-04 -3.338368539935874417e-06 -3.165433577092188467e-06 3.833504150318604490e-05 -7.385671682022685924e-06 2.308885864024719812e-06)
(4.299603187740965392e-04 -3.780513799214485080e-06 -5.456728322656133559e-06 5.357564706640519201e-05 -8.862666643205709669e-06 2.608321770230971129e-06)
(5.218523499295328908e-04 -3.378096382730973875e-06 -7.685752978937661727e-06 6.909331270521615635e-05 -9.882730416244375418e-06 2.805485987881869889e-06)
(6.878291230020890275e-04 -1.013565039566979549e-07 -1.306051636345090602e-05 9.324724678460216340e-05 -1.156350845457104153e-05 3.247506199388859244e-06)
(8.160013330169493123e-04 4.212561921747393448e-06 -1.658511900222706659e-05 1.141174838961664010e-04 -1.243484223135079989e-05 3.461677642667106455e-06)
(1.000581660707821089e-03 1.372312787172999665e-05 -2.239178655284331361e-05 1.418962978630778423e-04 -1.351736444808547765e-05 3.795034292391870020e-06)
(1.194185870307725578e-03 2.821093367033431366e-05 -2.797157136716107347e-05 1.721870612377243064e-04 -1.429961412157879894e-05 4.057081032806402783e-06)
(1.399456633767311295e-03 4.780082828118418245e-05 -3.324519093355485298e-05 2.057933834417153770e-04 -1.479984506846165811e-05 4.258939126683368234e-06)
(1.566924180197905130e-03 6.736657549175835186e-05 -3.643733182112997065e-05 2.370090279661426331e-04 -1.489973531952368548e-05 4.359384942724900899e-06)
(1.769028988184113494e-03 9.324328957302044384e-05 -4.011979246620940050e-05 2.748352379469810414e-04 -1.468932260820979393e-05 4.461672178554402196e-06)
(1.992098771912857724e-03 1.245407380766085624e-04 -4.328055053761876764e-05 3.189693535497832013e-04 -1.376186508459456491e-05 4.543840077449334061e-06)
(2.161276773335460508e-03 1.505322724578917663e-04 -4.452410021247869202e-05 3.579158267307009787e-04 -1.252819477717047785e-05 4.613302423515407212e-06)
(2.308615769119015844e-03 1.732514267982452358e-04 -4.486489663654322062e-05 3.953973784657364206e-04 -1.096369181125216149e-05 4.704049304583865212e-06)
(2.416821741296430043e-03 1.889396690795518011e-04 -4.456651642351695277e-05 4.264381567550268315e-04 -9.560585986384383743e-06 4.792117970862641224e-06)
(2.527920260199966514e-03 2.007745310280721813e-04 -4.390303727774248711e-05 4.585997752036012533e-04 -7.595006771778217681e-06 4.958829862804014656e-06)
(2.621785678374345153e-03 2.050478243205469653e-04 -4.330352491624636277e-05 4.866454788813674086e-04 -5.671723878424446363e-06 5.211155053305698935e-06)
(2.700821602892517978e-03 2.021047721714532041e-04 -4.312751703960495992e-05 5.108275842887833110e-04 -4.093399009513883625e-06 5.553223682782398167e-06)
(2.780019318159344249e-03 1.906336181916436841e-04 -4.346315875939734573e-05 5.352095777935731097e-04 -2.848947349399733981e-06 6.072598255404501660e-06)
(2.847052498179252281e-03 1.731878911662424110e-04 -4.418058012317695464e-05 5.555779580840528725e-04 -2.275107720194092607e-06 6.507878919919169934e-06)
(2.913354153843698141e-03 1.531701002275671030e-04 -4.531358158912092258e-05 5.735667107193019500e-04 -2.047116847612962249e-06 6.841924014795875287e-06)
(3.012622862483411469e-03 1.263148989992383714e-04 -4.792564429970561459e-05 5.944926581969610857e-04 -1.777845428250091335e-06 7.341201168061550616e-06)
(3.143098326579236296e-03 9.773660140539162000e-05 -5.208763306325965559e-05 6.168818710738016358e-04 -1.597076925425939167e-06 8.002617820121958446e-06)
(3.287798096581355089e-03 7.185774466377885499e-05 -5.664683564119930295e-05 6.406382262217818818e-04 -1.705173862579450417e-06 8.741508586931752854e-06)
(3.402506326996612533e-03 5.391777440791716545e-05 -5.943971090194900039e-05 6.621091652464882859e-04 -1.850901962736199381e-06 9.175328255419900234e-06)
(3.556480038342188683e-03 3.357533764701040420e-05 -6.362954503101144930e-05 6.889174011362981598e-04 -2.056158505548303525e-06 9.900614871739474976e-06)
(3.738043174331449371e-03 1.548783296898627280e-05 -6.810237804238753465e-05 7.193739873292340345e-04 -2.314667822457051779e-06 1.073407380293054267e-05)
(3.885449128642413583e-03 8.541253781787061127e-07 -7.117117538522712054e-05 7.449263288242093193e-04 -2.193336842290028585e-06 1.123950919840662011e-05)