/*--------------------------------*- C++ -*----------------------------------*\
| =========                 |                                                 |
| \\      /  F ield         | OpenFOAM: The Open Source CFD Toolbox           |
|  \\    /   O peration     | Version:  2.3.x                                 |
|   \\  /    A nd           | Web:      www.OpenFOAM.org                      |
|    \\/     M anipulation  |                                                 |
\*---------------------------------------------------------------------------*/
FoamFile
{
    version     2.0;
    format      ascii;
    class       volVectorField;
    location    "15000";
    object      UDNS;
}
// * * * * * * * * * * * * * * * * * * * * * * * * * * * * * * * * * * * * * //

dimensions      [0 1 -1 0 0 0 0];

internalField   nonuniform List<vector> 
2500
(
(4.240078208897881729e-04 -2.193753273749060062e-08 2.162610740155590924e-08)
(1.261263835221218673e-03 -1.188581010290278857e-07 2.622543234451716194e-08)
(2.045628854711853666e-03 -6.382664741669291817e-08 -4.379109651937032415e-08)
(3.038973323919940284e-03 6.668818846312486090e-07 -2.886252893213326637e-07)
(3.871633351949764230e-03 2.223915947717192471e-06 -5.486806173926596210e-07)
(4.555720795214381405e-03 4.330993110799136951e-06 -7.250817787008888696e-07)
(5.433202714060880560e-03 8.622205933760160014e-06 -1.097658184961941887e-06)
(6.421217023708909732e-03 1.603719913005424862e-05 -1.606934894506341442e-06)
(7.147464006869902291e-03 2.377076162380821145e-05 -1.860918251743602255e-06)
(8.454113619619760961e-03 4.132077189736413949e-05 -2.828680683855138243e-06)
(9.234398133369826900e-03 5.506100951129474000e-05 -3.160209421561464700e-06)
(1.032763097635488320e-02 7.878556810460731450e-05 -4.002773948445994157e-06)
(1.147778585205463595e-02 1.124823358493148959e-04 -5.095750272401377163e-06)
(1.264392238143370942e-02 1.565212145631265581e-04 -6.380935178883322055e-06)
(1.351235991627388992e-02 1.972004245857029363e-04 -7.024862267374210571e-06)
(1.497292386999121531e-02 2.821728569673625456e-04 -9.148016136728971378e-06)
(1.590787959404402208e-02 3.486678374314215582e-04 -9.971305217584045639e-06)
(1.689092397164841663e-02 4.368803047072337877e-04 -1.082393272901258804e-05)
(1.789872159434331006e-02 5.419955976336657310e-04 -1.163484622239086688e-05)
(1.923094201893518762e-02 7.056474176927523493e-04 -1.241551225298127152e-05)
(1.996423978672840632e-02 8.137861288118732137e-04 -1.239045910089734381e-05)
(2.085719365986707027e-02 9.607461784440567924e-04 -1.195077202783374412e-05)
(2.179546598799026250e-02 1.139482234562992548e-03 -1.033352571188109556e-05)
(2.241140305403114402e-02 1.274774213112383429e-03 -8.803187763507492618e-06)
(2.280384081453939657e-02 1.370608799007254179e-03 -7.931750095338017752e-06)
(2.324559256286237371e-02 1.492009655893125272e-03 -5.278996980828719498e-06)
(2.345126166387210415e-02 1.555964601414119202e-03 -4.170307538106958809e-06)
(2.359956869579153682e-02 1.608402177751498078e-03 -2.301094898648300171e-06)
(2.365328859169894826e-02 1.631373245620979916e-03 1.961113243676706243e-07)
(2.363608717502054327e-02 1.622754943491480379e-03 9.957478710927947480e-07)
(2.355537684914883745e-02 1.577904908492230862e-03 2.630549068709398313e-06)
(2.348318588024295508e-02 1.526910369309436577e-03 3.054761009879590220e-06)
(2.338428107353026156e-02 1.438810819206588851e-03 3.556434149418947207e-06)
(2.332931191110656360e-02 1.355994967260622415e-03 3.549525414142456259e-06)
(2.330365601483899360e-02 1.252857338714758514e-03 3.454214332379281663e-06)
(2.331866354860244808e-02 1.167386960142203231e-03 3.392952381236491929e-06)
(2.340373759891253846e-02 1.054706432477370412e-03 3.158993980894198208e-06)
(2.350502018781438357e-02 9.795979199570918616e-04 2.924803520856611615e-06)
(2.369172373974796214e-02 8.910782825423971482e-04 2.065917359569872294e-06)
(2.386896652222768311e-02 8.325324163164012515e-04 1.562680649652683235e-06)
(2.405873274576754081e-02 7.648412234569100304e-04 1.701057765761248738e-06)
(2.418397133970291366e-02 6.956160755207190481e-04 1.786860233897826600e-06)
(2.426684887479026859e-02 6.245319275479977198e-04 1.892689769025143272e-06)
(2.432123118284082799e-02 5.191178851506163608e-04 2.349444414611028681e-06)
(2.435718104852195934e-02 4.169539306492429085e-04 2.330214949206764619e-06)
(2.447630430792592862e-02 2.897600427833270831e-04 2.161747651974339611e-06)
(2.467926780947465176e-02 1.736357948532280503e-04 2.012776168595692408e-06)
(2.497327616694632740e-02 7.367705972156037204e-05 1.499831662018484480e-06)
(2.538844860333803327e-02 -7.242619582584417163e-06 8.460551148365689715e-07)
(2.573487891856893195e-02 -5.942767524425386150e-05 7.350415588159218869e-07)
(1.274351397117750532e-03 -3.746615806785146524e-08 1.279928098971393090e-07)
(3.748268701598735184e-03 -1.495836057992944560e-07 8.462867147155400897e-08)
(6.158461495229908787e-03 2.006464104800609129e-07 -4.865705115587107632e-07)
(8.666001139679482823e-03 1.774337710808165460e-06 -1.628527777670177571e-06)
(1.116606800595064918e-02 5.413770276611428099e-06 -3.287418491278171884e-06)
(1.376604572694147682e-02 1.226543493991974154e-05 -5.512599261413480962e-06)
(1.647936367198054447e-02 2.387940193239533170e-05 -8.351486086935798749e-06)
(1.927748261381740866e-02 4.275844725856883062e-05 -1.170351793256015992e-05)
(2.214030672513794124e-02 6.968500124953234585e-05 -1.550726716383137740e-05)
(2.510669687228608837e-02 1.066174358420263684e-04 -1.988558378971745828e-05)
(2.818175018344034125e-02 1.558063338203601403e-04 -2.497956236774755999e-05)
(3.139021947216243807e-02 2.207510577906122897e-04 -3.108630646858837466e-05)
(3.462831331645991467e-02 3.106357373499016457e-04 -3.843873140610211988e-05)
(3.797745001075804316e-02 4.277994221950546074e-04 -4.706374870491296109e-05)
(4.139999836575083969e-02 5.772901933782893444e-04 -5.666967884537029310e-05)
(4.487051166837383726e-02 7.647320506853317549e-04 -6.688546776246662618e-05)
(4.840097666981893476e-02 9.993011707670766599e-04 -7.732857306625462207e-05)
(5.183403868311968477e-02 1.287428828682968132e-03 -8.616511178701205997e-05)
(5.510151347872530025e-02 1.617031305223341504e-03 -9.242407679777523289e-05)
(5.816962987022762654e-02 1.980136553909086095e-03 -9.559493249190668224e-05)
(6.106388038079569452e-02 2.376955550177378522e-03 -9.539989494912260771e-05)
(6.371354004929884185e-02 2.795164850822792150e-03 -9.140683237463281439e-05)
(6.598070947736542347e-02 3.203850155355811823e-03 -8.412320903910974648e-05)
(6.793725538835679312e-02 3.604024271054601016e-03 -7.346813084490203352e-05)
(6.947023025301525545e-02 3.959881727978253364e-03 -6.091195626552276058e-05)
(7.063293653048019483e-02 4.266338683262878295e-03 -4.669999927995542154e-05)
(7.142361892924219136e-02 4.506472946829841175e-03 -3.152903007614388914e-05)
(7.185999788027520874e-02 4.662080570072807406e-03 -1.699446933838598617e-05)
(7.201182884458348643e-02 4.731615693989521011e-03 -2.795379426154088492e-06)
(7.194393729665672643e-02 4.710609872174803883e-03 9.124405662331711486e-06)
(7.172900045783570100e-02 4.605138186402712649e-03 1.863042164096988333e-05)
(7.145453338520209308e-02 4.432969072990267621e-03 2.454775268111042221e-05)
(7.119054150047984808e-02 4.211085916644172721e-03 2.732293770891138770e-05)
(7.101277869563177303e-02 3.959937692974511286e-03 2.741216128603525548e-05)
(7.093971641284022023e-02 3.691465987114400313e-03 2.690843789281155028e-05)
(7.098920249552959083e-02 3.413501842868171300e-03 2.628343511005075791e-05)
(7.120648352018413285e-02 3.133022431500153814e-03 2.501107572406692804e-05)
(7.160953151194662802e-02 2.853444041893118000e-03 2.144225362323339961e-05)
(7.213898669487361914e-02 2.622357175147389287e-03 1.580515467097351698e-05)
(7.270885170529593766e-02 2.439890942014067993e-03 1.195046196855910218e-05)
(7.320418692070616851e-02 2.269194734241229867e-03 1.266111121582197212e-05)
(7.360457722167210171e-02 2.064638778125497780e-03 1.387716631656955013e-05)
(7.388871157387019717e-02 1.830603904945260312e-03 1.501769446403921810e-05)
(7.403433692853089720e-02 1.548495578527032696e-03 1.805041168849483331e-05)
(7.415991161146616439e-02 1.214285232199238847e-03 1.804457738268993322e-05)
(7.448888662015411277e-02 8.788363884119519340e-04 1.698283723407851447e-05)
(7.511036441048174472e-02 5.314115556840181935e-04 1.597962799561885612e-05)
(7.604572164338617435e-02 2.199929889946873780e-04 1.170249932823678073e-05)
(7.720547647218485576e-02 -8.011311715864791942e-06 7.338572467097087443e-06)
(7.832822983325420096e-02 -1.740814642367544281e-04 5.919365169066881500e-06)
(2.045617131536460118e-03 -4.357410918000965718e-08 2.627491548080919263e-07)
(6.158295373640570135e-03 -2.112502184946116405e-07 1.265654442900991673e-07)
(1.056586420847482194e-02 1.563813530051575431e-07 -1.614728946623931188e-06)
(1.445870481284274728e-02 2.201189151084707447e-06 -4.121877774714894464e-06)
(1.879405757141000208e-02 7.154626373661947700e-06 -8.543595229666458424e-06)
(2.352346163789631461e-02 1.707858445535024081e-05 -1.536168337783735472e-05)
(2.795046576245961353e-02 3.312219887114306989e-05 -2.243246845902766747e-05)
(3.278077724328845588e-02 6.060217108348831872e-05 -3.203565153271505474e-05)
(3.780494873255377253e-02 1.013732611190743405e-04 -4.349156540550742803e-05)
(4.249970726813896704e-02 1.544855810091524061e-04 -5.412358404883086077e-05)
(4.842190911771136752e-02 2.379111564060823871e-04 -7.320808339017052270e-05)
(5.349235071935787289e-02 3.334927315974773807e-04 -8.819078707240587435e-05)
(5.865321457762582430e-02 4.680412656134367222e-04 -1.063135393922008231e-04)
(6.511290436522915170e-02 6.711185361829706975e-04 -1.374154650194899809e-04)
(7.053257026416735742e-02 8.956335213828289007e-04 -1.606027594537368824e-04)
(7.718366381248900621e-02 1.227271481344577525e-03 -1.966142082097636240e-04)
(8.269914766730088185e-02 1.574270890883648329e-03 -2.210692952355122060e-04)
(8.822414611343118440e-02 2.009820638481017024e-03 -2.431371107448044265e-04)
(9.378270527037865789e-02 2.525226691731753681e-03 -2.615138144762044724e-04)
(9.922086615297409651e-02 3.113888665222345076e-03 -2.725780843973841464e-04)
(1.046868471736744632e-01 3.797602216512082750e-03 -2.724505900220651499e-04)
(1.088207246303222464e-01 4.416088013963107017e-03 -2.634378210860170407e-04)
(1.128000986938013928e-01 5.083852938712924915e-03 -2.431649589896551339e-04)
(1.163764318380577228e-01 5.768218833598632266e-03 -2.083703702180811660e-04)
(1.188196799221888367e-01 6.313401193443726050e-03 -1.781518112112771704e-04)
(1.209320570589952765e-01 6.848221154923230317e-03 -1.311902428047271121e-04)
(1.221648017764699196e-01 7.215296547005895823e-03 -9.558347052639711082e-05)
(1.229514052738212571e-01 7.499779376522050338e-03 -4.701258058848022933e-05)
(1.231862589447977052e-01 7.615651279614261623e-03 -1.347059754834980199e-05)
(1.230758971554749559e-01 7.603141121385196925e-03 2.129639924530560234e-05)
(1.226865407862887947e-01 7.450134636799591974e-03 5.199317222525918196e-05)
(1.222125104756417308e-01 7.188814946437810036e-03 6.895301744345191768e-05)
(1.217587107122533596e-01 6.845346782295941117e-03 7.721555587523609850e-05)
(1.214524155580021525e-01 6.456187553064104447e-03 7.815757334353625298e-05)
(1.213171594628227185e-01 6.019329822824919657e-03 7.706457966911459481e-05)
(1.213918986167824565e-01 5.591570255594788090e-03 7.551153418966933531e-05)
(1.217531934296118279e-01 5.137317650723838280e-03 7.184367817999964898e-05)
(1.224475715335751613e-01 4.685570669339987962e-03 6.124473895740757841e-05)
(1.233318867398600083e-01 4.316975482274156180e-03 4.631053421449715126e-05)
(1.243153600373896606e-01 4.008952774436612583e-03 3.507940808132222057e-05)
(1.251727372914168690e-01 3.722649720491902001e-03 3.715867831445447678e-05)
(1.258417660245881864e-01 3.391673633199892689e-03 4.046905235773624448e-05)
(1.263103682627459423e-01 3.018692451249498608e-03 4.389088955693169812e-05)
(1.265506596304463993e-01 2.572089177142574540e-03 5.160669928894525153e-05)
(1.267631121792455462e-01 2.012269748533856983e-03 5.257782305080827478e-05)
(1.273302586771875855e-01 1.458222943119607054e-03 4.953992944819000379e-05)
(1.283855197276897175e-01 8.936514856402321023e-04 4.664317226188252716e-05)
(1.299604907612326721e-01 3.837340854655334091e-04 3.524511004856284484e-05)
(1.320139368726181706e-01 -1.870269301723021262e-05 2.178334533681126233e-05)
(1.338365059393345491e-01 -2.847912740481427446e-04 1.772398700238721954e-05)
(3.038924434084541888e-03 -1.307574771467200236e-07 5.831075055645662930e-07)
(8.636581687751276881e-03 -5.666850906796881723e-07 4.324212835992928556e-07)
(1.445865241897106163e-02 -6.270703062221168818e-07 -1.974906433711532106e-06)
(2.096324253112023459e-02 5.988472837535919615e-07 -8.000094557931610370e-06)
(2.666745269766414642e-02 5.856977755959578939e-06 -1.505977885623056381e-05)
(3.313057222751406711e-02 1.618359083688022536e-05 -2.636304412719161106e-05)
(3.974769920022417496e-02 3.477261993877215680e-05 -4.076453265291139327e-05)
(4.679729150348636846e-02 6.734843310162993773e-05 -5.970602755865581101e-05)
(5.330251910628774903e-02 1.148995913373759424e-04 -7.773742173635455666e-05)
(6.156956352906135105e-02 1.894519903876482341e-04 -1.095090867654821125e-04)
(6.856771108068593357e-02 2.822954741545852849e-04 -1.347083750062991647e-04)
(7.660720146320137980e-02 4.152381590706730402e-04 -1.719380515732347840e-04)
(8.490893666396737149e-02 6.079513225856451744e-04 -2.181491174243490000e-04)
(9.253271157439275918e-02 8.428374648012194664e-04 -2.600883227545660822e-04)
(1.020530661917344456e-01 1.190855492223112525e-03 -3.283896201005323404e-04)
(1.099440686698719416e-01 1.569066493734673842e-03 -3.768665662439817229e-04)
(1.187926595033736016e-01 2.073424521469260061e-03 -4.365992231831694538e-04)
(1.272176143208803012e-01 2.681149687625503705e-03 -4.852215843058186088e-04)
(1.354043836504265630e-01 3.387981043247943400e-03 -5.208535407873926722e-04)
(1.424574096246349619e-01 4.122637110660421975e-03 -5.366745677049032746e-04)
(1.497103059841528028e-01 4.971632639782810198e-03 -5.388800693959703517e-04)
(1.567810527658898556e-01 5.919015393188896933e-03 -5.151674165450340027e-04)
(1.624062306869565597e-01 6.814035699416932761e-03 -4.736805914795991094e-04)
(1.671045085993306256e-01 7.675522812631042913e-03 -4.161097508512717931e-04)
(1.706256472741800034e-01 8.423022918273771753e-03 -3.568866570360277961e-04)
(1.734967835361373723e-01 9.117492773272849876e-03 -2.786276639132965051e-04)
(1.754320479294133872e-01 9.673179434139839161e-03 -1.955138864518666327e-04)
(1.765180020638686675e-01 1.006109861047242877e-02 -1.121318183741141768e-04)
(1.769003829831071739e-01 1.027501860270616831e-02 -2.204487748285906325e-05)
(1.767089008524888039e-01 1.027619224132344904e-02 4.521008212599340664e-05)
(1.762187117444009854e-01 1.010472731565275131e-02 9.074187953712718876e-05)
(1.755190612326489319e-01 9.782040018420968402e-03 1.286591999287885473e-04)
(1.748069650420170373e-01 9.331947131365932180e-03 1.499772085984456228e-04)
(1.743195895119691585e-01 8.794241230567188122e-03 1.534725240605576554e-04)
(1.741383391433793393e-01 8.264956196108128386e-03 1.521440737643893438e-04)
(1.742165769580600321e-01 7.664646942041303257e-03 1.491120862546779519e-04)
(1.747481605187448384e-01 7.034664206767916525e-03 1.400877156873170024e-04)
(1.756291164008277061e-01 6.479944471670299674e-03 1.234418488337834401e-04)
(1.769809964889877962e-01 5.939426553496721800e-03 9.034115669360083805e-05)
(1.782506067516211046e-01 5.545292529614741228e-03 7.235610215056968340e-05)
(1.795054287359372225e-01 5.137158657832268868e-03 7.401996087475412318e-05)
(1.804286498589413590e-01 4.699335878216273805e-03 8.058955046149921474e-05)
(1.810938545295670554e-01 4.189459970758536468e-03 8.760992226453432176e-05)
(1.814395903963814671e-01 3.569995314323009747e-03 1.025985917957369226e-04)
(1.817021263609599757e-01 2.835046591836004604e-03 1.058354877114581660e-04)
(1.824677662324268590e-01 2.070025856396747865e-03 9.980249503490990555e-05)
(1.839486758181267945e-01 1.292078216634385233e-03 9.495502830923554529e-05)
(1.862886497012546938e-01 5.474728633142389098e-04 7.181395441401713605e-05)
(1.891962657641648449e-01 -2.318571101155870719e-05 4.548118000314724864e-05)
(1.918170109425513248e-01 -4.000906922583968460e-04 3.556689335358704704e-05)
(3.681440426036027003e-03 -1.908971564930291610e-07 1.086086976449625677e-06)
(1.119869794802258109e-02 -1.411114815585285563e-06 1.636233785744391983e-06)
(1.879393492125094878e-02 -2.731283038069178973e-06 -1.627916872322130353e-06)
(2.666745269766414642e-02 -2.759680114209262126e-06 -9.100954198889958736e-06)
(3.538033250469019980e-02 -4.663808666562389771e-07 -2.314635244757858363e-05)
(4.334046730331473501e-02 9.313104214591993942e-06 -3.904764030355247607e-05)
(5.206113726146034681e-02 2.734034639039213107e-05 -6.189655646886240879e-05)
(6.066513061070682999e-02 6.150646097814484712e-05 -8.848740765457754269e-05)
(7.014024415492252362e-02 1.145444115306483782e-04 -1.239133671247310241e-04)
(8.073204850388637777e-02 1.955551123582371692e-04 -1.740728833946759285e-04)
(9.022775099323299131e-02 3.058542045115647361e-04 -2.192146970394646868e-04)
(1.008057374106932913e-01 4.617247477226086010e-04 -2.816996342604066207e-04)
(1.109069429851434196e-01 6.823660365716054501e-04 -3.476939269734266136e-04)
(1.228523205606178725e-01 9.964721567008714455e-04 -4.460403612432087186e-04)
(1.334060940271513118e-01 1.371701593364284483e-03 -5.274915520589888501e-04)
(1.456443591531379755e-01 1.886768574805398196e-03 -6.375211229684695511e-04)
(1.564933357233113664e-01 2.472449125712528756e-03 -7.230289004540948767e-04)
(1.675550191196105709e-01 3.209290056592846788e-03 -8.024249396367318533e-04)
(1.775822249043095546e-01 4.028228603708055786e-03 -8.539448043841541556e-04)
(1.884541549162855878e-01 5.017890196429944036e-03 -8.916753194510475137e-04)
(1.978752709487321682e-01 6.051298399202389988e-03 -8.911067854076963612e-04)
(2.058800906017430044e-01 7.090394153950741775e-03 -8.632383843230010539e-04)
(2.133676079890606259e-01 8.186063666992728777e-03 -8.019160084272206838e-04)
(2.196750852608065352e-01 9.253705515157591155e-03 -7.123423265150395384e-04)
(2.249540771767698788e-01 1.028818356546652713e-02 -5.866238369950198261e-04)
(2.286500904879866236e-01 1.115701892458777558e-02 -4.578013749391792895e-04)
(2.311296280600106390e-01 1.186224463636725845e-02 -3.202847637816130409e-04)
(2.324994911713122447e-01 1.236528676695396699e-02 -1.822715880925450567e-04)
(2.329631989945390447e-01 1.262654603111585359e-02 -6.464494429834108618e-05)
(2.327486256454859848e-01 1.267753326586563110e-02 5.110723100966388258e-05)
(2.319941312285286328e-01 1.250902015787481308e-02 1.513455554257589291e-04)
(2.310541162526006664e-01 1.214258318389068239e-02 2.119440303758523755e-04)
(2.301273195844767416e-01 1.162921944307074122e-02 2.442873631833132175e-04)
(2.294687211867524335e-01 1.101424087216556352e-02 2.521359599362717587e-04)
(2.291387564381957842e-01 1.032570295737107215e-02 2.517161185463190559e-04)
(2.292128264233735668e-01 9.619424387268366364e-03 2.473706392298022946e-04)
(2.298103510477033651e-01 8.880353356383267199e-03 2.346328562483705185e-04)
(2.309990556277663754e-01 8.153826403359503219e-03 2.011538160702653765e-04)
(2.326158765858085398e-01 7.517344863327368384e-03 1.535438187868416217e-04)
(2.342918669400609055e-01 6.995463207512313264e-03 1.215277002950446947e-04)
(2.358398708521387555e-01 6.499662282080036213e-03 1.238536832983851534e-04)
(2.370268781108289813e-01 5.943796511321145469e-03 1.357647724974172132e-04)
(2.378694062183583369e-01 5.304814482291437400e-03 1.486220311229626608e-04)
(2.382728617562646922e-01 4.518544075664040344e-03 1.731595692790486652e-04)
(2.385748657709963472e-01 3.597802437993341020e-03 1.787577192455130112e-04)
(2.395790075765149019e-01 2.632626590119733351e-03 1.686025762125205243e-04)
(2.415250107643170940e-01 1.648877542916023318e-03 1.599210695474559179e-04)
(2.444688042793273508e-01 7.320628270770419572e-04 1.249374669962283494e-04)
(2.481652894018375188e-01 -6.977528589800190281e-06 8.235501451118234237e-05)
(2.517621971775155232e-01 -5.186851122187339375e-04 5.982661518520616809e-05)
(4.662746406679239494e-03 -4.409115958743708936e-07 2.589019803813898770e-06)
(1.376586066796161960e-02 -2.711544075303127368e-06 4.476164182157984672e-06)
(2.352346163789631461e-02 -6.855147750619720236e-06 9.215202814057541623e-07)
(3.340218021323174830e-02 -1.017714344866155517e-05 -9.229924252099167036e-06)
(4.364860342572547680e-02 -1.083105756968437983e-05 -2.667382217589178760e-05)
(5.429778591168128721e-02 -6.053697902485718726e-06 -5.203188833364636552e-05)
(6.496670055189184001e-02 9.128059289632785202e-06 -8.355021015904616944e-05)
(7.600622223326415627e-02 4.135340293839673476e-05 -1.244921189969599095e-04)
(8.784671453488666903e-02 9.431802713187433028e-05 -1.773997400047281898e-04)
(1.001450291749911015e-01 1.766229084688813978e-04 -2.422418193190600528e-04)
(1.133477080255770458e-01 2.981017401655874010e-04 -3.271686720506532687e-04)
(1.261370637801085548e-01 4.679971187332954922e-04 -4.156275545745497044e-04)
(1.391955259616245999e-01 7.214663732966967568e-04 -5.228139338688254879e-04)
(1.535078553762258269e-01 1.067577151070591909e-03 -6.602945595638254686e-04)
(1.671773576697557218e-01 1.506281306849873792e-03 -7.916534281632991044e-04)
(1.814533282306786122e-01 2.066742356972305766e-03 -9.367120689859286496e-04)
(1.957256201188893596e-01 2.757366944048545744e-03 -1.077803281552915755e-03)
(2.091389971925631530e-01 3.589897479732380003e-03 -1.189217494998198255e-03)
(2.228586061419313702e-01 4.575672201561993037e-03 -1.282459380728298397e-03)
(2.351232816896932920e-01 5.648297375475574283e-03 -1.327773511609093605e-03)
(2.468692805075718422e-01 6.828319825757394115e-03 -1.333145621961729288e-03)
(2.577337541509677199e-01 8.089214531377250314e-03 -1.288079413485201507e-03)
(2.667433336612712313e-01 9.336000822417186984e-03 -1.203241998312487224e-03)
(2.747355530781060984e-01 1.059813481951340196e-02 -1.066530556051403702e-03)
(2.808307677685801806e-01 1.174668364949346330e-02 -9.102333438452748279e-04)
(2.856062019884317849e-01 1.280615726485597947e-02 -7.126357231183676850e-04)
(2.887366835274488008e-01 1.366674207511583278e-02 -5.087596296441305749e-04)
(2.904959543900610397e-01 1.430152225031901259e-02 -3.014837737533976846e-04)
(2.910942870651923586e-01 1.467882085386517516e-02 -1.038229158993883106e-04)
(2.907957534479361228e-01 1.478770210300128958e-02 6.978233441362166243e-05)
(2.898728826754131682e-01 1.463932416966686606e-02 2.082283802490161114e-04)
(2.886865008237207708e-01 1.426290219774720147e-02 2.999185412075477280e-04)
(2.874112870803628983e-01 1.370868749785263477e-02 3.578135764420126239e-04)
(2.864938480920543040e-01 1.301630880587682608e-02 3.738691311474156621e-04)
(2.860403653255629841e-01 1.225782663536467004e-02 3.748762712988762749e-04)
(2.860039200250537039e-01 1.143178140751193242e-02 3.696293619380825401e-04)
(2.866646515954001107e-01 1.057900325384411762e-02 3.488541257869474314e-04)
(2.880028916624573498e-01 9.758429772999802077e-03 3.017964271453443858e-04)
(2.898448162384789639e-01 9.028840595852523354e-03 2.368668977513739104e-04)
(2.918418452048524570e-01 8.389672596965587134e-03 1.873993856569390408e-04)
(2.936533351830205030e-01 7.805611297480009869e-03 1.868212415083254831e-04)
(2.950697522123752470e-01 7.150496820449693536e-03 2.051778188302426148e-04)
(2.960465417311246017e-01 6.389251154547747301e-03 2.259689843998122097e-04)
(2.964988792571901510e-01 5.463842965191608933e-03 2.614189227881918575e-04)
(2.967946190822881025e-01 4.386397003265624095e-03 2.728360353739799917e-04)
(2.979510978136219457e-01 3.229910570827968126e-03 2.581851057988290843e-04)
(3.003087019178460881e-01 2.048723656159477137e-03 2.461910015221674712e-04)
(3.039693223246925369e-01 9.110551580190134804e-04 1.945363379145658854e-04)
(3.085197180863861188e-01 -7.280463158537311518e-06 1.303522778611244373e-04)
(3.129957087991492304e-01 -6.397341986245732616e-04 9.092888092108867334e-05)
(5.468795879408277355e-03 -6.538434220671751747e-07 4.767789934054537511e-06)
(1.647935622103531561e-02 -4.668429400853983682e-06 1.028412452258624436e-05)
(2.795046576245961353e-02 -1.173272938773154880e-05 7.786695189277635949e-06)
(3.983800465637038490e-02 -1.963705843407866669e-05 -3.605255931468335040e-06)
(5.216322755347527901e-02 -2.599486009862933428e-05 -2.498015712008707373e-05)
(6.496492447154554595e-02 -2.785366328901351266e-05 -5.710259772232642388e-05)
(7.834591380055276610e-02 -2.151128037238426299e-05 -1.015472323080812413e-04)
(9.197204213226441161e-02 2.796250594827483373e-06 -1.596384209136200445e-04)
(1.062445411919881455e-01 4.995948563708789691e-05 -2.332567589346937805e-04)
(1.210489385370077525e-01 1.288886263859560875e-04 -3.239212830941574548e-04)
(1.365411287872770330e-01 2.498486660341646664e-04 -4.360288047509969949e-04)
(1.524852157174356182e-01 4.262059481849095788e-04 -5.695781989916384345e-04)
(1.686439572255308550e-01 6.976282332562161502e-04 -7.295016054028858297e-04)
(1.854035480454963858e-01 1.067128380701568881e-03 -9.126233807132488971e-04)
(2.021590627417223507e-01 1.546013777130194992e-03 -1.103987823400141323e-03)
(2.192279238419854726e-01 2.154874015564272292e-03 -1.304057288251754890e-03)
(2.363232646745632437e-01 2.907268125276074849e-03 -1.498911931660111161e-03)
(2.529033846891909354e-01 3.830008040953569292e-03 -1.662483257219375113e-03)
(2.688950784291202489e-01 4.896443599742899763e-03 -1.783529650095293847e-03)
(2.838081954517940875e-01 6.079943486417911137e-03 -1.849865933330049981e-03)
(2.977625039747984204e-01 7.373378522284583514e-03 -1.858546480879241358e-03)
(3.104593389158571415e-01 8.746908417634842794e-03 -1.803154883881088501e-03)
(3.214173001435111088e-01 1.014184052177680151e-02 -1.687670442625257465e-03)
(3.307856069563700485e-01 1.153585950393978474e-02 -1.511998159983334814e-03)
(3.382250798016034343e-01 1.284904776475605422e-02 -1.293195607959871270e-03)
(3.438708208498100771e-01 1.404882191900645727e-02 -1.032821844190550103e-03)
(3.476716084696822029e-01 1.505773565531869085e-02 -7.512539241969996492e-04)
(3.498205397416606077e-01 1.582746638563919256e-02 -4.616234719367499689e-04)
(3.505752178627039028e-01 1.631902812420705368e-02 -1.828171658203703689e-04)
(3.502240978369807745e-01 1.651631359685451494e-02 6.410505513595397267e-05)
(3.490925313204715219e-01 1.642697106370129626e-02 2.635228183657467257e-04)
(3.475592741099978178e-01 1.607911982224452183e-02 4.033183949905781718e-04)
(3.459686560977995873e-01 1.551940141090318512e-02 4.859755342308579918e-04)
(3.447610911605338280e-01 1.479430236967396728e-02 5.140110097726662735e-04)
(3.440353190149331164e-01 1.397436530048988719e-02 5.201595222468989024e-04)
(3.438382799829085013e-01 1.307753759452406732e-02 5.149641903043022896e-04)
(3.444625947631719809e-01 1.214911421523923001e-02 4.872711521435135577e-04)
(3.458683421708898531e-01 1.124112477749902687e-02 4.220100741774914671e-04)
(3.478436457372880430e-01 1.042493367560371267e-02 3.362596758886024582e-04)
(3.500221273823699852e-01 9.690826766292544650e-03 2.696405158182238276e-04)
(3.520371015452469221e-01 9.016088213725481984e-03 2.653107742427228237e-04)
(3.535965225733786466e-01 8.280163914691929944e-03 2.902405419371554564e-04)
(3.546532556825354732e-01 7.415730824532912151e-03 3.210819107045059188e-04)
(3.550972425418940093e-01 6.367379890458906531e-03 3.694991372715976472e-04)
(3.553279844419070521e-01 5.130784325155327355e-03 3.896585173459983726e-04)
(3.566109396341563542e-01 3.794348082630225917e-03 3.692452394214444547e-04)
(3.593709979526619192e-01 2.425632806474684391e-03 3.530764495241035610e-04)
(3.636352751908764613e-01 1.097007710858367933e-03 2.842770338828622709e-04)
(3.689938714331840730e-01 -5.044901385255879354e-06 1.933848042634732606e-04)
(3.743383406325766494e-01 -7.608036185221953756e-04 1.297970295066286036e-04)
(6.190962846888335876e-03 -8.394795994736371848e-07 8.194019958318707583e-06)
(1.927731981112141418e-02 -7.218124378597866874e-06 2.121430965042682453e-05)
(3.231686064577807271e-02 -1.768512133766032157e-05 2.200316798598197281e-05)
(4.679566347652638902e-02 -3.399830635731235050e-05 1.131894691133134381e-05)
(6.066306786944398316e-02 -4.625197654025477601e-05 -1.149162162300749751e-05)
(7.600599967042558081e-02 -5.983584568525900256e-05 -5.043202422176203467e-05)
(9.197204213226441161e-02 -6.725141381692106163e-05 -1.069770066750801824e-04)
(1.089132292695775550e-01 -6.112006421655766036e-05 -1.877820789698997914e-04)
(1.248387617010249806e-01 -2.270719682276185251e-05 -2.775843398801277218e-04)
(1.421788699489038299e-01 4.343665848432813560e-05 -3.960228999047860489e-04)
(1.610817116869200927e-01 1.496217598038977596e-04 -5.562144262756397572e-04)
(1.797339232243815865e-01 3.181804802289268756e-04 -7.350529276164113456e-04)
(1.995497145867556887e-01 5.886798246581548526e-04 -9.680392736194560512e-04)
(2.179383658778109023e-01 9.623790230185898242e-04 -1.187944680615783156e-03)
(2.385491672627000903e-01 1.460652628146397528e-03 -1.467202810270135625e-03)
(2.583492889426234895e-01 2.092159773549099461e-03 -1.730357137051830464e-03)
(2.779953276721106037e-01 2.872407215532148117e-03 -1.982612167507695131e-03)
(2.971331935320591366e-01 3.833105574246846968e-03 -2.196717446693710173e-03)
(3.154246215117072483e-01 4.942519933811524019e-03 -2.354959727462372678e-03)
(3.334425848891310329e-01 6.205689241499529052e-03 -2.453888220465478762e-03)
(3.494335819569298063e-01 7.569366850135126473e-03 -2.466605491835889043e-03)
(3.633758614003010368e-01 8.993446178254208695e-03 -2.405886660199711615e-03)
(3.765442567345052560e-01 1.051507706082412466e-02 -2.252955835426153665e-03)
(3.869086780638439360e-01 1.197903922085779942e-02 -2.049036857754425386e-03)
(3.958374919384037849e-01 1.345268992095332780e-02 -1.749161015782633392e-03)