/*--------------------------------*- C++ -*----------------------------------*\
| =========                 |                                                 |
| \\      /  F ield         | OpenFOAM: The Open Source CFD Toolbox           |
|  \\    /   O peration     | Version:  v1912                                 |
|   \\  /    A nd           | Website:  www.openfoam.com                      |
|    \\/     M anipulation  |                                                 |
\*---------------------------------------------------------------------------*/
FoamFile
{
    version     2.0;
    format      ascii;
    class       volTensorField;
    location    "1000";
    object      grad(U);
}
// * * * * * * * * * * * * * * * * * * * * * * * * * * * * * * * * * * * * * //

dimensions      [0 0 -1 0 0 0 0];


internalField   nonuniform List<tensor> 
2500
(
(0 0 0 0.549027 -5.82849e-06 -1.24427e-05 0.549027 -1.24426e-05 -5.82855e-06)
(-1.60729e-18 1.22627e-23 4.90507e-23 0.437481 -3.05212e-05 -1.91886e-05 1.38713 2.71327e-05 2.01014e-05)
(0 0 0 0.410318 -0.000103603 -3.05179e-05 2.22186 -2.92429e-05 6.48882e-05)
(0 6.94484e-22 3.47242e-22 0.393277 -0.000205642 -4.31691e-05 3.06641 -0.000222746 0.000134141)
(-5.35181e-18 1.30659e-21 0 0.379876 -0.000327513 -6.63108e-05 3.92511 -0.000626543 0.000203176)
(-5.03441e-18 0 0 0.36663 -0.000418448 -0.000103802 4.79774 -0.00126418 0.000210551)
(0 -4.62485e-21 -1.15621e-21 0.351888 -0.000416429 -0.000151875 5.68116 -0.00202175 8.45224e-05)
(0 0 0 0.335189 -0.000287034 -0.000200716 6.5703 -0.00263854 -0.00021867)
(0 0 0 0.316721 -4.15321e-05 -0.000240727 7.45933 -0.00278058 -0.000691465)
(0 0 0 0.29697 0.000273283 -0.000267386 8.34234 -0.0021474 -0.00128625)
(0 0 0 0.276559 0.000599384 -0.000281066 9.21391 -0.000548389 -0.00194144)
(0 8.51685e-22 6.81348e-21 0.256084 0.000887582 -0.000284796 10.0696 0.00207032 -0.00260308)
(0 0 6.4094e-21 0.236026 0.00110731 -0.000282208 10.9059 0.00563911 -0.00323583)
(0 0 0 0.216774 0.00124744 -0.000276316 11.7206 0.0100013 -0.00382433)
(0 -2.26869e-20 0 0.198623 0.00131182 -0.000269082 12.5121 0.0149557 -0.0043688)
(0 2.13414e-20 -1.06707e-20 0.181714 0.00131321 -0.000261542 13.2801 0.0202935 -0.00487877)
(0 -4.01514e-20 0 0.166108 0.0012678 -0.000254094 14.0245 0.0258238 -0.00536761)
(-3.86767e-17 -7.55404e-20 1.88851e-20 0.151817 0.0011915 -0.000246769 14.746 0.0313883 -0.0058486)
(0 0 1.77651e-20 0.138774 0.00109791 -0.000239449 15.4454 0.0368667 -0.00633273)
(-1.71126e-17 0 1.67115e-20 0.126896 0.000997423 -0.00023199 16.1237 0.0421747 -0.00682798)
(0 0 0 0.116093 0.000897309 -0.000224298 16.7818 0.0472597 -0.00733918)
(0 0 0 0.106261 0.000802141 -0.000216307 17.4208 0.0520938 -0.00786862)
(0 0 0 0.0972944 0.000714351 -0.000208008 18.0416 0.0566674 -0.00841648)
(0 0 0 0.0891168 0.000634873 -0.000199429 18.6448 0.0609828 -0.00898154)
(0 0 0 0.0816304 0.000563599 -0.000190622 19.2312 0.0650482 -0.0095616)
(-2.37157e-17 0 4.63198e-20 0.0747638 0.000499837 -0.000181642 19.8011 0.0688743 -0.0101539)
(6.69277e-17 1.74291e-19 -4.35727e-20 0.0684577 0.000442517 -0.000172553 20.3552 0.0724699 -0.0107555)
(0 0 0 0.0626521 0.000390373 -0.000163419 20.8934 0.0758398 -0.0113631)
(3.94831e-17 0 -3.85577e-20 0.0572975 0.000342176 -0.000154288 21.4161 0.0789822 -0.0119738)
(-3.71415e-17 0 0 0.052347 0.000296754 -0.000145213 21.9233 0.0818868 -0.0125843)
(0 0 0 0.0477667 0.000253093 -0.000136238 22.4148 0.0845344 -0.0131919)
(3.28667e-17 0 -3.20964e-20 0.0435217 0.000210252 -0.000127392 22.8905 0.0868949 -0.0137937)
(0 0 0 0.0395826 0.000167438 -0.000118708 23.3502 0.0889265 -0.014387)
(0 0 0 0.0359258 0.000124064 -0.00011021 23.7936 0.0905752 -0.0149693)
(-2.73591e-17 0 5.34357e-20 0.0325235 7.97498e-05 -0.000101917 24.2204 0.0917754 -0.0155381)
(-2.57365e-17 -2.01067e-19 5.02666e-20 0.0293586 3.43297e-05 -9.38514e-05 24.6298 0.0924491 -0.0160913)
(-4.84204e-17 0 4.72855e-20 0.0264122 -1.20453e-05 -8.60249e-05 25.0218 0.0925099 -0.0166269)
(0 0 4.44812e-20 0.0236668 -5.91717e-05 -7.84503e-05 25.3952 0.0918655 -0.0171429)
(0 0 -4.18432e-20 0.0211086 -0.000106696 -7.11366e-05 25.7498 0.0904152 -0.0176375)
(8.06127e-17 3.14893e-19 -1.57447e-19 0.0187233 -0.000153815 -6.40872e-05 26.0847 0.0880587 -0.0181091)
(0 0 0 0.016498 -0.000199536 -5.73079e-05 26.399 0.0847025 -0.0185564)
(0 -1.39325e-19 6.96627e-20 0.0144185 -0.000242602 -5.07918e-05 26.6922 0.0802679 -0.0189782)
(0 0 0 0.0124686 -0.000281654 -4.45198e-05 26.9629 0.0747004 -0.019373)
(3.15622e-17 0 -6.16449e-20 0.0106334 -0.000315364 -3.84659e-05 27.2098 0.0679766 -0.0197392)
(-5.93807e-17 -1.15978e-19 0 0.00889592 -0.000342756 -3.25853e-05 27.4316 0.0601122 -0.0200743)
(0 0 0 0.00723414 -0.000363319 -2.6817e-05 27.6263 0.0511538 -0.0203748)
(0 0 0 0.00562756 -0.000377399 -2.11052e-05 27.7913 0.0411804 -0.0206353)
(-4.943e-17 -4.82714e-20 9.65429e-20 0.0040602 -0.000385301 -1.54358e-05 27.9232 0.0302665 -0.0208493)
(0 0 0 0.00251512 -0.000384422 -9.02649e-06 28.0185 0.0185261 -0.0210123)
(0 0 0 0.000872694 -0.000378011 -2.7191e-06 28.0725 0.00623573 -0.0210788)
(1.60729e-18 -4.90507e-23 -1.22627e-23 1.38713 2.01016e-05 2.71325e-05 0.437481 -1.91886e-05 -3.05212e-05)
(0 0 0 1.15827 1.89885e-05 8.84589e-05 1.15827 8.8459e-05 1.89885e-05)
(1.70676e-17 8.68105e-23 1.04173e-21 1.09639 -0.000114129 0.000135854 1.89946 0.000154645 0.000146978)
(1.07036e-17 -6.53297e-22 6.53297e-22 1.04408 -0.000288755 0.00016464 2.65691 0.000183455 0.000346179)
(0 0 -1.2291e-21 0.994296 -0.000487274 0.000133733 3.42448 0.000171107 0.000572076)
(1.89434e-17 -4.62485e-21 4.62485e-21 0.944318 -0.00061252 2.32859e-05 4.19622 0.000132769 0.000714554)
(0 4.35056e-21 -2.17528e-21 0.892784 -0.000542754 -0.000141476 4.96693 0.000156135 0.000654587)
(0 0 0 0.839296 -0.000214845 -0.000304906 5.73207 0.000404381 0.000337689)
(-3.15379e-17 7.69967e-21 0 0.784253 0.000339817 -0.000416992 6.48763 0.00106494 -0.000195875)
(0 0 0 0.728481 0.00102007 -0.000458387 7.23 0.00228642 -0.000840206)
(0 0 6.81348e-21 0.673033 0.00170609 -0.000438145 7.95614 0.00414508 -0.00147346)
(0 0 0 0.618955 0.00229899 -0.000379232 8.66362 0.00664034 -0.00199594)
(0 0 0 0.567132 0.002739 -0.00030554 9.35071 0.00970766 -0.00234771)
(4.64627e-17 4.53737e-20 -1.13434e-20 0.518238 0.00300624 -0.00023476 10.0164 0.0132398 -0.00250885)
(0 0 1.06707e-20 0.472684 0.00311123 -0.000176563 10.6604 0.0171089 -0.00248971)
(0 8.03028e-20 -1.00379e-20 0.43068 0.00308239 -0.000134037 11.2827 0.021186 -0.00231829)
(3.86767e-17 1.51081e-19 -2.83277e-20 0.392246 0.00295489 -0.000106117 11.8837 0.0253536 -0.00202925)
(-7.27659e-17 -1.42121e-19 0 0.357263 0.0027632 -8.97514e-05 12.4644 0.029514 -0.00165624)
(6.84504e-17 1.33692e-19 0 0.325519 0.00253656 -8.14626e-05 13.0255 0.033592 -0.00122775)
(0 0 1.57204e-20 0.296757 0.00229726 -7.8154e-05 13.5679 0.0375336 -0.000765569)
(0 0 0 0.270706 0.00206089 -7.74377e-05 14.0927 0.0413049 -0.00028491)
(5.69798e-17 0 -1.39111e-20 0.247089 0.00183726 -7.76693e-05 14.6005 0.0448872 0.000204717)
(-5.36006e-17 -2.09377e-19 2.61722e-20 0.225645 0.00163162 -7.78289e-05 15.0925 0.048273 0.000698002)
(0 0 -2.462e-20 0.206135 0.00144577 -7.73763e-05 15.569 0.0514628 0.00119276)
(0 -1.85279e-19 2.31599e-20 0.188343 0.00127932 -7.60845e-05 16.0308 0.0544616 0.0016888)
(0 0 0 0.172083 0.00113054 -7.39298e-05 16.4783 0.0572753 0.00218701)
(0 0 0 0.157192 0.000996892 -7.09996e-05 16.9118 0.0599094 0.00268882)
(0 0 0 0.143524 0.000875577 -6.74381e-05 17.3317 0.0623659 0.00319581)
(0 0 0 0.130956 0.000763699 -6.34017e-05 17.7381 0.0646429 0.00370937)
(1.39755e-16 5.45919e-19 -1.706e-20 0.119378 0.000658551 -5.90414e-05 18.131 0.0667326 0.00423052)
(0 0 0 0.108699 0.000557682 -5.44918e-05 18.5105 0.0686197 0.0047599)
(-6.18351e-17 0 3.01929e-20 0.0988177 0.000458892 -4.98725e-05 18.8767 0.0702816 0.00529768)
(-1.74504e-16 -4.54436e-19 5.68046e-20 0.0896861 0.000360377 -4.52816e-05 19.2294 0.0716871 0.00584342)
(0 -4.27486e-19 0 0.0812487 0.000260791 -4.08025e-05 19.5683 0.0727957 0.00639625)
(0 0 0 0.0733967 0.0001591 -3.65076e-05 19.8933 0.073558 0.00695466)
(0 3.78284e-19 -2.36428e-20 0.0661319 5.494e-05 -3.24623e-05 20.2041 0.0739147 0.00751639)
(0 0 0 0.0593843 -5.13718e-05 -2.86971e-05 20.5007 0.0738006 0.00807846)
(0 0 0 0.0531021 -0.000159456 -2.5225e-05 20.7822 0.0731441 0.00863757)
(0 0 0 0.0472941 -0.000268438 -2.20803e-05 21.0486 0.071869 0.00918976)
(0 0 0 0.0418707 -0.000376591 -1.92901e-05 21.2995 0.0698978 0.00973014)
(-1.42669e-16 -5.57301e-19 3.48313e-20 0.036839 -0.000481558 -1.68573e-05 21.5343 0.0671579 0.0102531)
(-2.01312e-16 -5.2425e-19 6.55313e-20 0.0321544 -0.000580496 -1.4759e-05 21.7524 0.0635877 0.0107523)
(-1.26249e-16 -2.46579e-19 3.08224e-20 0.0277592 -0.000670334 -1.29565e-05 21.9533 0.059143 0.011221)
(0 0 0 0.0236457 -0.000747987 -1.13829e-05 22.1361 0.0538027 0.0116524)
(0 2.18199e-19 -2.72749e-20 0.0197592 -0.000811183 -9.94189e-06 22.3 0.0475747 0.0120397)
(0 0 0 0.0160566 -0.000858675 -8.52179e-06 22.4435 0.0404918 0.0123768)
(0 0 0 0.0124738 -0.00089118 -7.04774e-06 22.5649 0.0326109 0.0126586)
(0 0 0 0.00899601 -0.000909328 -5.65431e-06 22.6619 0.0239904 0.0128791)
(0 0 -4.27157e-20 0.00558144 -0.000907974 -3.14933e-06 22.732 0.0147168 0.0130259)
(1.64587e-16 4.01824e-20 -4.01824e-20 0.00193748 -0.000894646 -6.41687e-07 22.7716 0.00496649 0.0130873)
(0 0 0 2.22186 6.48883e-05 -2.9243e-05 0.410318 -3.05179e-05 -0.000103603)
(-1.70676e-17 -1.04173e-21 -8.68105e-23 1.89946 0.000146978 0.000154645 1.09639 0.000135854 -0.000114129)
(1.07036e-17 6.53297e-22 6.53297e-22 1.82078 -9.65246e-06 0.00027437 1.82078 0.00027437 -9.65232e-06)
(0 0 0 1.744 -0.000184228 0.000331015 2.5715 0.000406883 0.000159046)
(-1.89434e-17 5.78106e-22 -2.31242e-21 1.66278 -0.000360281 0.000239577 3.33758 0.000573433 0.000321326)
(0 0 0 1.57614 -0.000419829 -4.01692e-05 4.10951 0.000839466 0.000336784)
(0 0 0 1.48492 -0.000207305 -0.000432921 4.87917 0.00131744 5.15684e-05)
(0 0 0 1.39058 0.000349001 -0.000797304 5.64048 0.00214383 -0.000580811)
(5.9335e-17 -4.5269e-22 0 1.2947 0.00118835 -0.00101934 6.38895 0.00342894 -0.00146726)
(0 -6.81348e-21 6.81348e-21 1.19892 0.0021621 -0.00106364 7.12138 0.00521945 -0.00243954)
(0 0 0 1.1049 0.0031086 -0.000960835 7.8355 0.00750139 -0.00332825)
(-1.48176e-16 -4.82343e-20 2.41171e-20 1.01411 0.00390224 -0.00077109 8.52975 0.0102201 -0.00400711)
(0 9.07474e-20 0 0.927768 0.00447166 -0.000553861 9.20306 0.0132983 -0.0044082)
(0 0 0 0.846769 0.00479722 -0.000351996 9.85516 0.0166496 -0.00451731)
(-8.22301e-17 -1.60606e-19 2.00757e-20 0.771613 0.00489769 -0.000188298 10.4859 0.0201876 -0.00435884)
(7.73534e-17 1.51081e-19 -3.77702e-20 0.702468 0.00481398 -6.93433e-05 11.0956 0.0238308 -0.00397903)
(-7.27659e-17 0 0 0.639325 0.00459508 8.47771e-06 11.6849 0.0275072 -0.00343139)
(-1.36901e-16 -2.67384e-19 3.3423e-20 0.581921 0.00428855 5.35288e-05 12.2543 0.0311559 -0.00276709)
(0 0 0 0.529809 0.00393461 7.51677e-05 12.8046 0.0347283 -0.00202949)
(0 0 0 0.482633 0.00356437 8.17003e-05 13.3367 0.038188 -0.0012521)
(0 -2.22577e-19 2.78222e-20 0.439903 0.00319991 7.96097e-05 13.8513 0.04151 -0.000458925)
(0 0 -2.61722e-20 0.401164 0.00285492 7.34298e-05 14.3493 0.0446788 0.000334388)
(0 0 0 0.366021 0.00253681 6.60466e-05 14.831 0.0476863 0.00111861)
(0 0 0 0.334029 0.00224847 5.9138e-05 15.2975 0.0505295 0.00188925)
(-8.92369e-17 -3.48582e-19 0 0.304879 0.00198936 5.34932e-05 15.7488 0.0532093 0.00264498)
(0 -6.55817e-19 0 0.278257 0.00175695 4.93615e-05 16.1856 0.0557273 0.00338645)
(0 -6.16924e-19 0 0.253885 0.0015476 4.66912e-05 16.6079 0.0580853 0.00411533)
(0 0 0 0.231519 0.00135709 4.52567e-05 17.0162 0.0602823 0.00483377)
(0 0 0 0.21097 0.00118117 4.47697e-05 17.4107 0.0623143 0.0055439)
(0 0 0 0.192046 0.00101567 4.49394e-05 17.7911 0.0641725 0.00624764)
(0 0 1.50964e-20 0.174624 0.00085682 4.55061e-05 18.1577 0.065842 0.00694648)
(-1.16336e-16 0 1.42011e-20 0.15857 0.000701343 4.62343e-05 18.5104 0.0673015 0.00764141)
(0 0 0 0.143693 0.000546405 4.6927e-05 18.8493 0.0685224 0.00833286)
(-2.05892e-16 -4.02133e-19 0 0.129937 0.000389804 4.74329e-05 19.1739 0.0694673 0.00902066)
(-1.93682e-16 0 0 0.117227 0.000229947 4.76001e-05 19.4843 0.0700907 0.00970395)
(-1.82195e-16 -7.11699e-19 0 0.105473 6.61957e-05 4.72922e-05 19.7802 0.070339 0.010381)
(0 0 0 0.0945611 -0.000101096 4.64682e-05 20.0613 0.0701513 0.0110489)
(0 0 0 0.0844362 -0.000271258 4.51145e-05 20.3277 0.0694609 0.0117047)
(0 0 0 0.0750709 -0.000442915 4.31686e-05 20.5788 0.0681976 0.0123445)
(1.42669e-16 5.57301e-19 -8.70783e-21 0.0663858 -0.00061343 4.05849e-05 20.8143 0.0662886 0.0129633)
(0 0 -8.19141e-21 0.0583149 -0.000779141 3.73676e-05 21.0341 0.0636662 0.0135551)
(0 -9.86318e-19 7.70561e-21 0.0508097 -0.000935567 3.35709e-05 21.2377 0.0602707 0.014113)
(0 0 -7.24862e-21 0.0438305 -0.00107789 2.92974e-05 21.4246 0.0560587 0.0146295)
(0 0 0 0.0372925 -0.00120128 2.47086e-05 21.5943 0.0510075 0.0150973)
(0 4.10518e-19 -3.20717e-21 0.0311365 -0.00130204 2.00216e-05 21.7458 0.0451201 0.0155096)
(0 0 0 0.0252735 -0.00137811 1.54808e-05 21.8783 0.0384236 0.0158611)
(0 0 0 0.0196303 -0.00143038 1.12162e-05 21.9901 0.0309675 0.0161483)
(0 1.70863e-19 -2.66973e-21 0.0141516 -0.00145972 6.8444e-06 22.0795 0.0228071 0.0163676)
(0 0 0 0.00876817 -0.00145936 2.88799e-06 22.1437 0.0140213 0.0165064)
(0 0 0 0.00304698 -0.00144097 6.20904e-07 22.1805 0.00474276 0.0165307)
(0 0 0 3.06641 0.000134141 -0.000222746 0.393277 -4.3169e-05 -0.000205642)
(-1.07036e-17 -6.53297e-22 6.53297e-22 2.65691 0.000346179 0.000183455 1.04408 0.000164639 -0.000288755)
(0 0 6.14552e-22 2.5715 0.000159046 0.000406883 1.744 0.000331014 -0.000184227)
(0 0 0 2.47131 -6.15947e-06 0.000475505 2.47131 0.000475505 -6.15947e-06)
(0 0 0 2.35588 -0.000103194 0.000293395 3.20753 0.000637411 0.000120052)
(0 -1.02314e-21 -4.09255e-21 2.22825 8.6205e-06 -0.000196455 3.9405 0.000915092 5.62786e-05)
(0 0 -1.92492e-21 2.09229 0.000481089 -0.000855712 4.66231 0.00150098 -0.000333421)
(5.9335e-17 3.62152e-21 -1.81076e-21 1.95203 0.00134336 -0.00142203 5.36787 0.00257365 -0.00105921)
(0 0 -6.81348e-21 1.81093 0.00247365 -0.00170571 6.05416 0.004191 -0.00197457)
(5.25058e-17 5.12752e-20 0 1.67183 0.00367622 -0.00167325 6.71973 0.00629013 -0.0028775)
(-9.87838e-17 -4.82343e-20 2.41171e-20 1.537 0.00477215 -0.00140075 7.36434 0.00875453 -0.00359684)
(0 0 0 1.40812 0.00564052 -0.00100214 7.98783 0.0114677 -0.00402466)
(0 0 0 1.2866 0.00622378 -0.00058044 8.59082 0.0143358 -0.00411746)
(-8.22301e-17 -1.60606e-19 4.01514e-20 1.17329 0.00651765 -0.000205686 9.17401 0.0172914 -0.00388397)
(-7.73534e-17 1.51081e-19 0 1.06855 0.0065538 8.74328e-05 9.73764 0.0202878 -0.00336744)
(0 0 0 0.972475 0.00638306 0.000291607 10.2827 0.0232914 -0.00262908)
(1.36901e-16 0 -3.3423e-20 0.884762 0.00606231 0.000416267 10.8097 0.0262759 -0.00173447)
(0 0 0 0.804993 0.00564516 0.000478285 11.3193 0.0292187 -0.000744772)
(0 0 0 0.732643 0.00517708 0.000495765 11.8121 0.0320993 0.000288341)
(0 -4.45155e-19 0 0.667098 0.00469314 0.000484595 12.2888 0.0349002 0.00132467)
(-2.14402e-16 -4.18754e-19 2.61722e-20 0.607745 0.00421833 0.000457145 12.7497 0.0376063 0.00233522)
(3.0253e-16 3.9392e-19 -1.231e-20 0.553847 0.00376869 0.000422197 13.1955 0.0402057 0.00330087)
(-3.79451e-16 -3.70558e-19 1.15799e-20 0.504912 0.00335296 0.000385439 13.6266 0.04269 0.00421057)
(0 0 0 0.460392 0.00297448 0.000350217 14.0434 0.0450532 0.00505933)
(0 0 0 0.41978 0.00263278 0.000318231 14.4461 0.0472912 0.00584645)
(0 0 0 0.382685 0.00232496 0.000290111 14.8351 0.0494011 0.00657423)
(0 -5.80336e-19 0 0.348741 0.00204659 0.000265851 15.2106 0.0513802 0.00724665)
(1.39755e-16 5.45919e-19 0 0.317665 0.00179243 0.000245101 15.5726 0.0532247 0.00786874)
(1.31467e-16 0 0 0.289078 0.00155716 0.00022736 15.9215 0.0549283 0.00844585)
(0 0 0 0.262765 0.00133554 0.000212092 16.257 0.0564819 0.00898341)
(0 0 0 0.238557 0.00112271 0.000198777 16.5793 0.0578715 0.00948657)
(0 0 0 0.216272 0.000914422 0.000186951 16.8883 0.0590786 0.00996006)
(0 0 0 0.195702 0.000706934 0.00017621 17.1839 0.0600787 0.0104081)
(1.93682e-16 1.51314e-18 4.72855e-20 0.176682 0.000497298 0.000166198 17.4662 0.0608398 0.0108344)
(0 0 0 0.15911 0.000283418 0.000156585 17.735 0.0613248 0.0112417)
(-1.7139e-16 0 -4.18432e-20 0.142869 6.43682e-05 0.000147046 17.9902 0.0614866 0.011632)
(0 6.29787e-19 0 0.12787 -0.000159558 0.00013742 18.2314 0.0612756 0.0120056)
(-3.03327e-16 -1.18487e-18 -7.40545e-20 0.113998 -0.00038744 0.000127664 18.459 0.0606338 0.0123629)
(0 0 0 0.101163 -0.000617425 0.000117601 18.6725 0.0595006 0.0127035)
(0 0 0 0.0892883 -0.000846057 0.000107061 18.872 0.0578146 0.0130252)
(0 0 0 0.0783117 -0.00106849 9.59944e-05 19.0572 0.055518 0.0133249)
(0 -9.27823e-19 0 0.068142 -0.00127885 8.44382e-05 19.228 0.0525564 0.0135981)
(0 0 0 0.0586805 -0.00147062 7.25271e-05 19.3843 0.0488915 0.0138399)
(0 0 0 0.0498486 -0.00163734 6.05118e-05 19.5253 0.044501 0.0140457)
(-5.9316e-16 -3.86172e-19 -9.65429e-20 0.0415631 -0.00177397 4.8749e-05 19.651 0.0393839 0.014212)
(0 -3.63269e-19 4.54087e-20 0.0337088 -0.0018776 3.76523e-05 19.7603 0.0335602 0.0143378)
(0 0 0 0.026158 -0.00194911 2.74156e-05 19.8525 0.0270699 0.0144252)
(0 0 8.03647e-20 0.0188417 -0.00198953 1.73037e-05 19.9259 0.0199607 0.0144776)
(-3.09652e-16 -1.51197e-19 -7.55986e-20 0.0116873 -0.00199153 6.79225e-06 19.9788 0.0122985 0.0144887)
(2.91288e-16 0 -7.11152e-20 0.00407368 -0.00197038 7.41873e-07 20.0093 0.00416945 0.0144425)
(5.35181e-18 -3.26648e-22 -1.30659e-21 3.92511 0.000203176 -0.000626543 0.379876 -6.63108e-05 -0.000327513)
(0 -1.2291e-21 0 3.42448 0.000572076 0.000171107 0.994296 0.000133733 -0.000487274)
(-1.89434e-17 -2.31242e-21 5.78106e-22 3.33758 0.000321326 0.000573433 1.66278 0.000239577 -0.000360281)
(0 0 -2.17528e-21 3.20753 0.000120052 0.000637411 2.35588 0.000293395 -0.000103194)
(3.35262e-17 0 0 3.0448 4.66305e-05 0.000302405 3.0448 0.000302405 4.66305e-05)
(0 3.84984e-21 0 2.86326 0.000332828 -0.000435154 3.71277 0.000272338 -0.000133129)
(0 0 0 2.67268 0.00116067 -0.00135528 4.35314 0.000420794 -0.000763495)
(-5.5816e-17 -2.72539e-20 6.81348e-21 2.47991 0.00244571 -0.00207886 4.96461 0.00106045 -0.00177229)
(0 0 2.56376e-20 2.28983 0.00392006 -0.00235796 5.54843 0.00231446 -0.00293124)
(-9.87838e-17 -4.82343e-20 2.41171e-20 2.10605 0.00532055 -0.00218878 6.1065 0.00408 -0.00401345)
(0 0 0 1.93074 0.0064799 -0.00171042 6.64167 0.00617433 -0.00487265)
(0 0 4.26828e-20 1.76542 0.00731988 -0.0010923 7.15627 0.00843803 -0.00544046)
(8.22301e-17 1.60606e-19 -4.01514e-20 1.61128 0.00782472 -0.000474407 7.65259 0.0107652 -0.00570425)
(0 1.51081e-19 0 1.46841 0.00801942 5.37343e-05 8.13226 0.0131 -0.00568866)
(0 0 0 1.33693 0.00795224 0.000451468 8.59675 0.0154203 -0.00544036)
(0 0 0 1.21672 0.00768121 0.000714328 9.04684 0.0177223 -0.0050164)
(0 0 0 1.10708 0.00726478 0.000859345 9.48339 0.0200073 -0.00447533)
(0 0 0 1.00742 0.00675613 0.000912735 9.90704 0.0222761 -0.00387147)
(0 0 0 0.916914 0.00619971 0.000901824 10.3179 0.0245247 -0.00325112)
(0 0 2.61722e-20 0.834805 0.00563018 0.000850467 10.7164 0.0267456 -0.00265092)
(0 0 0 0.760302 0.00507256 0.000777301 11.1025 0.0289278 -0.00209765)
(0 0 0 0.692634 0.00454325 0.000695652 11.4766 0.0310593 -0.00160893)
(-1.78474e-16 0 -2.72329e-21 0.631157 0.00405156 0.000614227 11.839 0.0331282 -0.00119456)
(-1.67889e-16 -6.55817e-19 -1.02471e-20 0.575092 0.00360124 0.000538175 12.1892 0.0351233 -0.000858102)
(0 0 1.92789e-20 0.523936 0.00319206 0.000470112 12.528 0.0370349 -0.000598334)
(0 5.80336e-19 0 0.477246 0.00282112 0.000410939 12.8549 0.0388542 -0.000410621)
(0 0 0 0.434451 0.00248381 0.000360525 13.1702 0.0405747 -0.000288095)
(0 0 0 0.395237 0.00217445 0.000318172 13.4738 0.0421861 -0.000222541)
(0 0 0 0.359237 0.00188717 0.000282894 13.7657 0.043683 -0.000205081)
(0 0 0 0.326115 0.00161595 0.000253636 14.0459 0.0450523 -0.00022669)
(2.18873e-16 0 5.34357e-20 0.29566 0.00135522 0.000229363 14.3144 0.0462837 -0.000278576)
(0 0 0 0.267599 0.00110012 0.000209122 14.5711 0.0473587 -0.000352389)
(-3.87363e-16 0 0 0.241713 0.000846083 0.000192056 14.8157 0.04826 -0.000440488)
(-1.82195e-16 0 0 0.217869 0.000589748 0.000177403 15.0485 0.0489597 -0.000536057)
(0 0 0 0.195886 0.000328376 0.000164448 15.2692 0.0494296 -0.000633265)
(0 0 0 0.175555 6.08069e-05 0.00015247 15.4779 0.0496319 -0.000727586)
(0 1.18487e-18 7.40545e-20 0.15682 -0.000212585 0.000141066 15.6744 0.0495268 -0.00081636)
(0 0 0 0.139557 -0.000491042 0.000130029 15.8586 0.0490674 -0.000897365)
(0 0 0 0.123618 -0.000772078 0.000118946 16.0309 0.0482061 -0.000969842)
(-2.52497e-16 -9.86318e-19 -1.2329e-19 0.108915 -0.0010514 0.00010743 16.1909 0.0468928 -0.00103481)
(-2.37523e-16 -9.27823e-19 0 0.0953413 -0.00132354 9.5291e-05 16.3388 0.0450807 -0.00109509)
(0 0 0 0.0828109 -0.00158133 8.25052e-05 16.4744 0.0427239 -0.0011548)
(-2.10185e-16 -8.21035e-19 -1.02629e-19 0.0711991 -0.00181671 6.92288e-05 16.5978 0.0397916 -0.00121884)
(0 0 0 0.060395 -0.00202193 5.58283e-05 16.7087 0.0362619 -0.00129193)
(0 -7.26539e-19 -9.08173e-20 0.0502862 -0.00219073 4.28812e-05 16.8071 0.0321318 -0.00137709)
(-3.49927e-16 0 -8.54313e-20 0.0407245 -0.00231934 3.10447e-05 16.8923 0.0274152 -0.00147422)
(3.29174e-16 6.42918e-19 0 0.0315818 -0.0024085 2.06762e-05 16.964 0.0221425 -0.0015786)
(0 3.02394e-19 0 0.0227465 -0.0024594 1.07159e-05 17.0209 0.0163537 -0.00168377)
(0 0 0 0.0141244 -0.00246497 4.46467e-07 17.062 0.0101006 -0.00179093)
(0 0 0 0.0049265 -0.00244332 -2.33491e-06 17.0857 0.0034324 -0.00187599)
(0 0 0 4.79774 0.000210551 -0.00126418 0.36663 -0.000103802 -0.000418448)
(-1.89434e-17 -2.31242e-21 4.62485e-21 4.19622 0.000714554 0.000132769 0.944318 2.32859e-05 -0.00061252)
(0 0 -2.17528e-21 4.10951 0.000336784 0.000839466 1.57614 -4.01692e-05 -0.000419829)
(0 4.09255e-21 1.02314e-21 3.9405 5.62786e-05 0.000915092 2.22825 -0.000196455 8.6205e-06)
(0 0 3.84984e-21 3.71277 -0.000133129 0.000272338 2.86326 -0.000435154 0.000332829)
(0 0 0 3.45857 9.7766e-05 -0.000954147 3.45857 -0.000954149 9.7766e-05)
(5.5816e-17 6.81348e-21 -1.02202e-20 3.19918 0.00114394 -0.00230989 4.00784 -0.00169009 -0.000940013)
(0 0 0 2.94583 0.00288376 -0.00323804 4.51403 -0.00221203 -0.00260098)
(0 0 0 2.70374 0.00480885 -0.00347676 4.9836 -0.00218348 -0.00446469)
(0 4.53737e-20 -4.53737e-20 2.47568 0.0064978 -0.00312108 5.42339 -0.00158101 -0.00618589)
(0 8.53655e-20 -8.53655e-20 2.26297 0.0077758 -0.00240758 5.83907 -0.000543362 -0.0075995)
(1.6446e-16 1.60606e-19 0 2.06569 0.00862017 -0.00156186 6.23604 0.000776457 -0.0086673)
(1.54707e-16 0 0 1.88377 0.00907144 -0.000749515 6.61816 0.00226475 -0.00941127)
(-1.45532e-16 -5.68483e-19 7.10604e-20 1.71674 0.009193 -6.92586e-05 6.98815 0.00385441 -0.00987696)
(1.36901e-16 2.67384e-19 0 1.56377 0.00905306 0.000437749 7.34837 0.00551443 -0.0101165)
(0 0 0 1.42412 0.00871661 0.000771176 7.69974 0.00723422 -0.0101818)
(0 0 0 1.29699 0.00824223 0.000954451 8.04322 0.00901174 -0.0101211)
(0 0 0 1.18123 0.00768017 0.00102104 8.37917 0.0108446 -0.00997797)
(-2.14402e-16 0 0 1.07593 0.00707187 0.00100538 8.70758 0.0127266 -0.00978931)
(0 0 0 0.980164 0.00644989 0.000937686 9.02846 0.0146464 -0.00958527)
(0 0 0 0.89311 0.00583811 0.000841855 9.34145 0.0165884 -0.00938914)
(0 0 0 0.813918 0.00525302 0.000735269 9.64659 0.018535 -0.00921736)
(1.67889e-16 6.55817e-19 -2.04943e-20 0.741651 0.00470445 0.000629516 9.94339 0.0204675 -0.00908036)
(-3.15865e-16 -6.16924e-19 0 0.67572 0.00419708 0.000531613 10.2316 0.0223678 -0.00898331)
(0 -5.80336e-19 0 0.615488 0.00373146 0.000445225 10.5113 0.0242196 -0.00892714)
(0 0 0 0.560303 0.00330581 0.000371695 10.7818 0.026007 -0.00890957)
(0 0 0 0.509761 0.00291536 0.000310896 11.0431 0.0277174 -0.0089258)
(0 0 0 0.4634 0.00255504 0.000261852 11.2952 0.0293383 -0.00896958)
(0 0 0 0.420803 0.00221891 0.000223156 11.5376 0.0308599 -0.00903364)
(0 0 -1.33589e-20 0.381604 0.00190062 0.000193238 11.7703 0.0322679 -0.00911035)
(0 0 0 0.345546 0.00159443 0.000170537 11.9929 0.0335521 -0.00919215)
(0 0 0 0.312354 0.00129499 0.000153587 12.2056 0.0346978 -0.00927183)
(0 0 0 0.281768 0.000997442 0.00014105 12.408 0.0356885 -0.00934292)
(0 0 0 0.253586 0.000697579 0.00013173 12.6002 0.0365038 -0.00939984)
(0 0 -1.96808e-20 0.227613 0.000392705 0.000124513 12.7817 0.0371201 -0.0094382)
(0 1.18487e-18 3.70273e-20 0.20368 8.11312e-05 0.000118295 12.9528 0.0375112 -0.00945502)
(2.85338e-16 0 0 0.181623 -0.000236954 0.000112398 13.1135 0.037644 -0.00944916)
(-5.36832e-16 -1.0485e-18 -6.55313e-20 0.16135 -0.0005604 0.000106425 13.2636 0.0374815 -0.00942096)
(0 0 0 0.14267 -0.000886499 9.97513e-05 13.4032 0.0369906 -0.00937229)
(0 0 0 0.125461 -0.00121063 9.18171e-05 13.5322 0.0361285 -0.0093071)
(0 0 0 0.109651 -0.00152655 8.23355e-05 13.6508 0.0348596 -0.00923137)
(0 -8.21035e-19 0 0.0950807 -0.00182603 7.12815e-05 13.7593 0.0331487 -0.0091528)
(0 0 -4.82714e-20 0.0816065 -0.00209991 5.89065e-05 13.8572 0.0309695 -0.00908006)
(0 0 0 0.0691192 -0.00233943 4.58003e-05 13.9452 0.0283021 -0.00902181)
(0 0 0 0.0574678 -0.00253712 3.28517e-05 14.0226 0.0251448 -0.00898491)
(3.29174e-16 6.42918e-19 4.01824e-20 0.0464958 -0.00268855 2.11379e-05 14.0896 0.0215059 -0.00897326)
(3.09652e-16 6.04789e-19 3.77993e-20 0.0360276 -0.00279413 1.12624e-05 14.1455 0.0174088 -0.00898529)
(2.91288e-16 2.84461e-19 3.55576e-20 0.0259222 -0.00285516 1.91949e-06 14.1898 0.0128874 -0.00901838)
(0 0 -3.34488e-20 0.0161045 -0.00286551 -6.31397e-06 14.2218 0.00798304 -0.00907602)
(2.57762e-16 1.2586e-19 6.29302e-20 0.00563028 -0.00284533 -4.8379e-06 14.2403 0.00271993 -0.00911192)
(0 -1.15621e-21 -4.62485e-21 5.68116 8.45224e-05 -0.00202175 0.351888 -0.000151875 -0.000416429)
(0 4.35056e-21 -4.35056e-21 4.96693 0.000654587 0.000156135 0.892784 -0.000141476 -0.000542754)
(0 0 0 4.87917 5.15684e-05 0.00131744 1.48492 -0.000432921 -0.000207304)
(0 0 0 4.66231 -0.000333421 0.00150098 2.09229 -0.000855712 0.000481089)
(0 0 0 4.35314 -0.000763496 0.000420794 2.67268 -0.00135528 0.00116067)
(-5.5816e-17 3.40674e-21 -6.81348e-21 4.00784 -0.000940013 -0.0016901 3.19918 -0.00230989 0.00114394)
(0 0 0 3.66492 -6.52019e-05 -0.00389533 3.66492 -0.00389533 -6.52031e-05)
(0 0 0 3.34223 0.00195238 -0.00521745 4.07595 -0.00570071 -0.00227061)
(0 0 0 3.04536 0.00439079 -0.0053694 4.44257 -0.00721155 -0.00483368)
(0 0 0 2.77434 0.00656037 -0.00466971 4.77599 -0.0081891 -0.0071971)
(0 8.03028e-20 -8.03028e-20 2.52771 0.00818294 -0.00355996 5.08493 -0.00861028 -0.00909229)
(3.09413e-16 2.26621e-19 -7.55404e-20 2.30369 0.00924139 -0.00236477 5.3765 -0.00854189 -0.0104728)
(0 0 0 2.10006 0.00981361 -0.00127613 5.65635 -0.00807478 -0.0113972)
(0 0 0 1.9148 0.00999951 -0.000388936 5.92826 -0.00729224 -0.0119538)
(-1.28782e-16 -2.51527e-19 0 1.74618 0.00989273 0.000267786 6.19488 -0.00625706 -0.0122268)
(0 0 0 1.59269 0.00957242 0.00070601 6.45797 -0.00501301 -0.0122865)
(0 0 0 1.45296 0.0091032 0.000959341 6.71833 -0.00359068 -0.0121897)
(-2.14402e-16 -8.37509e-19 1.04689e-19 1.32562 0.00853705 0.00106954 6.97628 -0.002015 -0.011981)
(0 0 0 1.20951 0.00791548 0.00107804 7.23193 -0.000308783 -0.0116959)
(0 0 0 1.10357 0.0072708 0.00102046 7.48495 0.00150395 -0.0113622)
(1.78474e-16 0 0 1.00688 0.00662751 0.000925221 7.7348 0.0033981 -0.011002)
(0 0 0 0.918539 0.00600312 0.000813326 7.9809 0.00534735 -0.0106313)
(0 0 0 0.837723 0.0054091 0.000699098 8.22271 0.00732564 -0.0102621)
(0 0 0 0.763737 0.00485193 0.0005916 8.45969 0.00930796 -0.00990213)
(-2.7951e-16 -1.09184e-18 0 0.695878 0.00433361 0.000495871 8.69116 0.0112706 -0.00955602)
(0 0 -3.20964e-20 0.633625 0.00385354 0.000414135 8.91669 0.0131934 -0.00922541)
(0 0 0 0.576476 0.00340908 0.00034675 9.13573 0.015057 -0.0089099)
(0 0 0 0.523908 0.0029958 0.000292908 9.34783 0.0168449 -0.00860741)
(0 0 0 0.475519 0.00260776 0.00025117 9.55256 0.0185425 -0.00831459)
(-4.11784e-16 -8.04266e-19 2.51333e-20 0.430973 0.00223916 0.000219785 9.74957 0.0201365 -0.0080274)
(0 0 -2.36428e-20 0.389962 0.00188469 0.000196933 9.93856 0.0216125 -0.00774138)
(0 -1.4234e-18 0 0.352179 0.00153841 0.000180839 10.1192 0.0229583 -0.00745208)
(0 1.33898e-18 -2.09216e-20 0.31737 0.00119511 0.000169844 10.2911 0.0241582 -0.00715537)
(0 -1.25957e-18 0 0.285282 0.000850686 0.000162434 10.4542 0.0251978 -0.00684776)
(0 -1.18487e-18 9.25682e-21 0.255721 0.000502012 0.000157184 10.6084 0.0260569 -0.00652673)
(2.85338e-16 1.1146e-18 0 0.228513 0.000147158 0.000152705 10.7533 0.0267166 -0.006191)
(-5.36832e-16 -3.1455e-18 1.22871e-20 0.203472 -0.000214256 0.000148047 10.8891 0.0271491 -0.00584084)
(0 0 0 0.180464 -0.000580484 0.000142634 11.0156 0.0273296 -0.00547865)
(4.75045e-16 9.27823e-19 3.62431e-21 0.159313 -0.000948911 0.000135706 11.1328 0.0272281 -0.00510795)
(0 0 0 0.139872 -0.00131474 0.000126558 11.241 0.0268176 -0.00473446)
(0 0 0 0.122038 -0.00167081 0.000114827 11.34 0.0260649 -0.00436607)
(0 0 0 0.105645 -0.00200847 0.000100511 11.4299 0.0249485 -0.00401259)
(0 0 1.13522e-20 0.0905454 -0.00231785 8.3998e-05 11.5109 0.0234417 -0.00368491)
(0 -6.8345e-19 -2.13578e-20 0.0765891 -0.00258896 6.61411e-05 11.5833 0.0215323 -0.00339405)
(0 0 0 0.0635898 -0.00281349 4.82013e-05 11.6468 0.0192165 -0.00314933)
(0 0 0 0.0513729 -0.00298654 3.17001e-05 11.7015 0.0165009 -0.00295696)
(0 0 0 0.0397661 -0.00310802 1.75289e-05 11.7468 0.0134041 -0.00281823)
(0 0 0 0.0286136 -0.00317932 4.15102e-06 11.7828 0.00995532 -0.00273278)
(-5.15524e-16 0 0 0.0177838 -0.00319569 -6.13885e-06 11.8088 0.00618897 -0.00270637)
(0 0 0 0.00621815 -0.00317863 -4.76752e-06 11.8237 0.00211471 -0.00269904)
(0 0 0 6.5703 -0.00021867 -0.00263854 0.335189 -0.000200716 -0.000287034)
(1.67631e-17 0 -8.1851e-21 5.73207 0.000337689 0.000404383 0.839296 -0.000304906 -0.000214845)
(0 0 0 5.64048 -0.000580811 0.00214383 1.39058 -0.000797304 0.000349001)
(5.9335e-17 -1.81076e-21 3.62152e-21 5.36787 -0.00105921 0.00257365 1.95203 -0.00142203 0.00134336)