/*--------------------------------*- C++ -*----------------------------------*\
| =========                 |                                                 |
| \\      /  F ield         | OpenFOAM: The Open Source CFD Toolbox           |
|  \\    /   O peration     | Version:  v1912                                 |
|   \\  /    A nd           | Website:  www.openfoam.com                      |
|    \\/     M anipulation  |                                                 |
\*---------------------------------------------------------------------------*/
FoamFile
{
    version     2.0;
    format      ascii;
    class       volScalarField;
    location    "1000";
    object      nut;
}
// * * * * * * * * * * * * * * * * * * * * * * * * * * * * * * * * * * * * * //

dimensions      [0 2 -1 0 0 0 0];


internalField   nonuniform List<scalar> 
2500
(
6.61261e-05
6.26559e-05
6.20315e-05
6.41223e-05
6.7827e-05
7.23103e-05
7.70474e-05
8.17404e-05
8.62348e-05
9.04594e-05
9.43899e-05
9.80274e-05
0.000101386
0.000104485
0.000107349
0.000110001
0.000112463
0.000114756
0.000116899
0.000118908
0.000120798
0.000122581
0.000124268
0.000125867
0.000127386
0.000128832
0.000130209
0.000131524
0.000132778
0.000133976
0.00013512
0.000136212
0.000137253
0.000138246
0.000139191
0.000140089
0.00014094
0.000141744
0.000142502
0.000143212
0.000143874
0.000144488
0.000145052
0.000145563
0.000146021
0.000146421
0.000146758
0.000147028
0.000147221
0.00014733
6.26559e-05
6.10281e-05
5.8763e-05
5.82357e-05
5.95746e-05
6.22013e-05
6.5505e-05
6.9057e-05
7.2602e-05
7.60029e-05
7.91948e-05
8.21545e-05
8.4882e-05
8.73902e-05
8.9698e-05
9.18264e-05
9.37967e-05
9.56286e-05
9.73401e-05
9.89468e-05
0.000100462
0.000101898
0.000103263
0.000104566
0.000105813
0.000107011
0.000108162
0.000109271
0.000110341
0.000111374
0.000112373
0.000113337
0.000114269
0.000115168
0.000116035
0.000116869
0.00011767
0.000118437
0.000119168
0.000119862
0.000120516
0.00012113
0.000121698
0.000122219
0.000122689
0.000123102
0.000123453
0.000123734
0.000123936
0.000124047
6.20315e-05
5.8763e-05
5.66973e-05
5.6344e-05
5.75575e-05
6.00969e-05
6.34906e-05
6.7289e-05
7.11735e-05
7.49505e-05
7.85155e-05
8.18225e-05
8.48611e-05
8.76418e-05
9.01863e-05
9.25209e-05
9.46732e-05
9.66695e-05
9.85333e-05
0.000100285
0.000101943
0.000103522
0.000105033
0.000106487
0.000107892
0.000109255
0.00011058
0.000111871
0.000113133
0.000114367
0.000115575
0.000116758
0.000117916
0.000119048
0.000120154
0.000121233
0.000122282
0.000123299
0.00012428
0.000125222
0.00012612
0.000126969
0.000127763
0.000128497
0.000129163
0.000129752
0.000130255
0.00013066
0.00013095
0.000131107
6.41223e-05
5.82357e-05
5.6344e-05
5.83136e-05
6.2425e-05
6.77959e-05
7.38913e-05
8.0272e-05
8.66009e-05
9.26547e-05
9.83072e-05
0.000103503
0.000108237
0.00011253
0.000116423
0.000119964
0.000123202
0.000126183
0.000128948
0.000131535
0.000133974
0.000136291
0.000138508
0.000140641
0.000142705
0.000144711
0.000146668
0.000148584
0.000150462
0.000152309
0.000154125
0.000155914
0.000157675
0.000159407
0.000161108
0.000162776
0.000164408
0.000165998
0.00016754
0.000169027
0.000170452
0.000171805
0.000173076
0.000174255
0.000175327
0.000176279
0.000177093
0.000177748
0.000178219
0.000178471
6.7827e-05
5.95746e-05
5.75575e-05
6.2425e-05
7.15056e-05
8.25755e-05
9.43465e-05
0.000106096
0.000117381
0.000127936
0.000137622
0.000146393
0.000154268
0.000161307
0.000167594
0.000173223
0.000178288
0.000182877
0.000187071
0.000190938
0.000194538
0.000197921
0.000201126
0.000204188
0.000207134
0.000209985
0.00021276
0.000215472
0.000218131
0.000220747
0.000223326
0.00022587
0.000228382
0.000230861
0.000233305
0.000235711
0.000238073
0.000240384
0.000242634
0.000244813
0.000246908
0.000248904
0.000250785
0.000252534
0.00025413
0.000255549
0.000256765
0.000257745
0.000258449
0.000258825
7.23103e-05
6.22013e-05
6.00969e-05
6.77959e-05
8.25755e-05
0.000101155
0.000121097
0.000140964
0.000159942
0.00017758
0.000193651
0.000208083
0.000220909
0.000232228
0.000242184
0.000250937
0.000258653
0.000265489
0.000271592
0.000277089
0.000282092
0.000286695
0.000290976
0.000295
0.00029882
0.000302479
0.000306013
0.00030945
0.000312811
0.000316115
0.000319375
0.000322599
0.000325794
0.00032896
0.000332098
0.000335203
0.000338268
0.000341283
0.000344236
0.000347111
0.00034989
0.000352551
0.000355071
0.000357422
0.000359576
0.000361498
0.000363149
0.000364482
0.000365439
0.000365946
7.70474e-05
6.5505e-05
6.34906e-05
7.38913e-05
9.43465e-05
0.000121097
0.000150672
0.000180698
0.000209744
0.00023698
0.000261957
0.000284472
0.000304497
0.000322117
0.000337498
0.000350855
0.000362425
0.000372448
0.000381158
0.000388771
0.000395477
0.000401446
0.000406821
0.000411724
0.000416258
0.000420506
0.000424538
0.00042841
0.000432168
0.000435849
0.00043948
0.000443083
0.000446671
0.000450254
0.000453834
0.000457408
0.000460968
0.000464505
0.000468001
0.000471436
0.000474784
0.000478017
0.0004811
0.000483996
0.000486664
0.000489056
0.000491119
0.000492788
0.000493988
0.000494616
8.17404e-05
6.9057e-05
6.7289e-05
8.0272e-05
0.000106096
0.000140964
0.000180698
0.000221993
0.000262661
0.000301376
0.000337369
0.000370218
0.000399746
0.000425939
0.000448907
0.000468846
0.000486012
0.000500695
0.000513202
0.000523834
0.000532881
0.00054061
0.000547259
0.000553039
0.000558133
0.000562698
0.000566865
0.000570743
0.000574423
0.000577979
0.00058147
0.000584941
0.000588426
0.000591947
0.000595517
0.00059914
0.000602809
0.000606516
0.000610242
0.000613959
0.000617635
0.000621231
0.000624701
0.000627995
0.000631057
0.000633823
0.000636223
0.000638173
0.000639575
0.000640303
8.62348e-05
7.2602e-05
7.11735e-05
8.66009e-05
0.000117381
0.000159942
0.000209744
0.000262661
0.000315698
0.000366952
0.000415289
0.000460055
0.000500895
0.000537648
0.000570304
0.000598963
0.000623813
0.000645114
0.000663173
0.00067833
0.000690939
0.000701352
0.000709911
0.000716934
0.000722712
0.000727506
0.000731545
0.000735028
0.000738124
0.000740975
0.000743695
0.000746379
0.000749099
0.000751907
0.00075484
0.000757917
0.00076114
0.000764506
0.000767997
0.000771582
0.00077522
0.00077886
0.000782444
0.000785905
0.00078917
0.000792155
0.00079477
0.000796907
0.000798446
0.000799235
9.04594e-05
7.60029e-05
7.49505e-05
9.26547e-05
0.000127936
0.00017758
0.00023698
0.000301376
0.000366952
0.000431159
0.000492464
0.000549977
0.000603186
0.000651807
0.000695707
0.000734859
0.000769335
0.000799285
0.000824933
0.000846566
0.000864523
0.000879177
0.000890924
0.000900165
0.000907297
0.000912697
0.000916717
0.000919677
0.000921863
0.000923524
0.000924872
0.000926084
0.000927304
0.000928641
0.00093018
0.000931972
0.000934045
0.000936412
0.000939064
0.000941968
0.000945079
0.000948335
0.000951661
0.000954975
0.000958179
0.000961169
0.000963827
0.000966023
0.000967608
0.000968409
9.43899e-05
7.91948e-05
7.85155e-05
9.83072e-05
0.000137622
0.000193651
0.000261957
0.000337369
0.000415289
0.000492464
0.0005669
0.000637456
0.000703483
0.000764607
0.000820609
0.000871372
0.000916852
0.000957074
0.000992133
0.0010222
0.0010475
0.00106834
0.00108508
0.00109814
0.00110795
0.00111498
0.00111968
0.00112251
0.00112388
0.0011242
0.0011238
0.00112299
0.00112204
0.00112115
0.00112048
0.00112017
0.00112028
0.00112087
0.00112195
0.00112349
0.00112547
0.0011278
0.0011304
0.00113316
0.00113597
0.00113868
0.00114116
0.00114325
0.00114477
0.00114552
9.80274e-05
8.21545e-05
8.18225e-05
0.000103503
0.000146393
0.000208083
0.000284472
0.000370218
0.000460055
0.000549977
0.000637456
0.000721057
0.000799993
0.000873818
0.000942264
0.00100516
0.00106239
0.0011139
0.00115964
0.00119966
0.00123405
0.00126298
0.00128669
0.0013055
0.00131981
0.00133008
0.0013368
0.00134053
0.00134179
0.00134113
0.00133905
0.00133602
0.00133246
0.00132873
0.00132513
0.00132189
0.00131919
0.00131713
0.0013158
0.00131521
0.00131532
0.00131607
0.00131737
0.00131908
0.00132107
0.00132317
0.0013252
0.00132697
0.00132827
0.00132889
0.000101386
8.4882e-05
8.48611e-05
0.000108237
0.000154268
0.000220909
0.000304497
0.000399746
0.000500895
0.000603186
0.000703483
0.000799993
0.000891759
0.000978267
0.00105922
0.00113441
0.00120371
0.00126698
0.00132412
0.00137507
0.00141978
0.00145829
0.00149067
0.0015171
0.00153785
0.00155328
0.00156383
0.00157005
0.00157252
0.00157188
0.00156877
0.00156382
0.00155764
0.00155079
0.00154373
0.00153688
0.00153055
0.00152499
0.00152036
0.00151674
0.00151416
0.00151258
0.00151188
0.00151195
0.00151261
0.00151367
0.00151491
0.00151609
0.001517
0.00151741
0.000104485
8.73902e-05
8.76418e-05
0.00011253
0.000161307
0.000232228
0.000322117
0.000425939
0.000537648
0.000651807
0.000764607
0.000873818
0.000978267
0.00107735
0.00117075
0.00125825
0.00133968
0.0014149
0.00148378
0.00154616
0.00160194
0.001651
0.0016933
0.00172885
0.00175775
0.00178019
0.00179651
0.00180711
0.00181255
0.00181346
0.00181055
0.00180458
0.00179631
0.0017865
0.00177584
0.00176496
0.00175438
0.00174452
0.00173571
0.00172817
0.00172199
0.0017172
0.00171372
0.00171144
0.00171016
0.00170966
0.00170969
0.00170999
0.00171029
0.00171037
0.000107349
8.9698e-05
9.01863e-05
0.000116423
0.000167594
0.000242184
0.000337498
0.000448907
0.000570304
0.000695707
0.000820609
0.000942264
0.00105922
0.00117075
0.00127649
0.00137623
0.0014698
0.00155703
0.00163776
0.00171183
0.00177905
0.00183925
0.00189226
0.00193797
0.00197631
0.00200732
0.00203112
0.00204798
0.00205829
0.00206259
0.00206157
0.00205599
0.00204673
0.00203469
0.00202078
0.00200584
0.00199068
0.00197594
0.00196219
0.00194983
0.00193911
0.00193018
0.00192303
0.00191757
0.00191363
0.00191096
0.00190929
0.00190831
0.00190773
0.00190735
0.000110001
9.18264e-05
9.25209e-05
0.000119964
0.000173223
0.000250937
0.000350855
0.000468846
0.000598963
0.000734859
0.000871372
0.00100516
0.00113441
0.00125825
0.00137623
0.00148814
0.0015938
0.00169304
0.00178569
0.00187156
0.00195043
0.00202208
0.00208628
0.00214281
0.00219149
0.00223218
0.00226485
0.00228957
0.00230653
0.00231611
0.00231883
0.00231542
0.00230671
0.00229368
0.00227738
0.00225888
0.00223922
0.00221935
0.00220011
0.00218216
0.00216601
0.00215196
0.00214017
0.00213062
0.00212318
0.00211763
0.00211365
0.00211093
0.00210915
0.00210816
0.000112463
9.37967e-05
9.46732e-05
0.000123202
0.000178288
0.000258653
0.000362425
0.000486012
0.000623813
0.000769335
0.000916852
0.00106239
0.00120371
0.00133968
0.0014698
0.0015938
0.0017115
0.00182274
0.00192734
0.00202508
0.00211573
0.00219903
0.00227471
0.00234248
0.00240208
0.00245324
0.00249578
0.00252959
0.00255468
0.00257121
0.00257952
0.00258012
0.00257377
0.00256138
0.00254405
0.00252297
0.0024994
0.00247456
0.00244961
0.00242555
0.00240319
0.00238311
0.00236568
0.00235104
0.00233917
0.00232989
0.00232291
0.00231789
0.00231453
0.00231272
0.000114756
9.56286e-05
9.66695e-05
0.000126183
0.000182877
0.000265489
0.000372448
0.000500695
0.000645114
0.000799285
0.000957074
0.0011139
0.00126698
0.0014149
0.00155703
0.00169304
0.00182274
0.00194597
0.00206252
0.00217219
0.00227472
0.00236982
0.00245718
0.00253648
0.00260738
0.00266954
0.00272266
0.00276649
0.00280085
0.00282571
0.00284117
0.00284756
0.0028454
0.00283547
0.00281877
0.00279653
0.00277012
0.00274097
0.00271053
0.00268017
0.00265107
0.00262416
0.00260013
0.00257938
0.00256207
0.00254812
0.00253731
0.00252935
0.00252396
0.00252109
0.000116899
9.73401e-05
9.85333e-05
0.000128948
0.000187071
0.000271592
0.000381158
0.000513202
0.000663173
0.000824933
0.000992133
0.00115964
0.00132412
0.00148378
0.00163776
0.00178569
0.00192734
0.00206252
0.00219106
0.0023127
0.00242719
0.00253421
0.00263343
0.00272447
0.00280696
0.0028805
0.0029447
0.00299919
0.00304368
0.00307793
0.00310185
0.00311553
0.00311926
0.00311359
0.00309935
0.00307765
0.00304984
0.00301749
0.00298226
0.00294584
0.0029098
0.00287551
0.00284406
0.00281621
0.00279239
0.00277276
0.00275722
0.00274557
0.00273761
0.00273341
0.000118908
9.89468e-05
0.000100285
0.000131535
0.000190938
0.000277089
0.000388771
0.000523834
0.00067833
0.000846566
0.0010222
0.00119966
0.00137507
0.00154616
0.00171183
0.00187156
0.00202508
0.00217219
0.0023127
0.00244636
0.00257289
0.00269194
0.00280315
0.00290613
0.00300045
0.00308567
0.00316132
0.00322698
0.00328221
0.00332666
0.00336005
0.00338226
0.00339334
0.00339358
0.00338356
0.0033642
0.00333671
0.00330263
0.00326374
0.00322195
0.00317921
0.00313732
0.00309785
0.00306203
0.0030307
0.00300433
0.00298307
0.00296689
0.00295575
0.00294991
0.000120798
0.000100462
0.000101943
0.000133974
0.000194538
0.000282092
0.000395477
0.000532881
0.000690939
0.000864523
0.0010475
0.00123405
0.00141978
0.00160194
0.00177905
0.00195043
0.00211573
0.00227472
0.00242719
0.00257289
0.0027115
0.00284268
0.00296603
0.00308111
0.00318748
0.00328463
0.00337206
0.00344926
0.00351573
0.00357099
0.00361463
0.00364634
0.00366595
0.00367351
0.00366933
0.00365405
0.00362867
0.00359456
0.00355349
0.00350746
0.0034587
0.00340941
0.00336167
0.00331724
0.00327749
0.00324334
0.00321534
0.00319373
0.00317875
0.00317089
0.000122581
0.000101898
0.000103522
0.000136291
0.000197921
0.000286695
0.000401446
0.00054061
0.000701352
0.000879177
0.00106834
0.00126298
0.00145829
0.001651
0.00183925
0.00202208
0.00219903
0.00236982
0.00253421
0.00269194
0.00284268
0.00298606
0.00312166
0.00324901
0.00336761
0.00347693
0.00357642
0.0036655
0.0037436
0.00381017
0.00386466
0.00390663
0.00393572
0.00395176
0.0039548
0.00394518
0.00392363
0.00389128
0.00384971
0.00380092
0.00374725
0.00369122
0.00363535
0.003582
0.00353314
0.0034903
0.00345455
0.0034266
0.00340704
0.00339677
0.000124268
0.000103263
0.000105033
0.000138508
0.000201126
0.000290976
0.000406821
0.000547259
0.000709911
0.000890924
0.00108508
0.00128669
0.00149067
0.0016933
0.00189226
0.00208628
0.00227471
0.00245718
0.00263343
0.00280315
0.00296603
0.00312166
0.0032696
0.00340935
0.00354036
0.00366206
0.00377386
0.00387511
0.0039652
0.00404348
0.00410933
0.00416217
0.00420151
0.00422697
0.00423837
0.00423578
0.00421962
0.00419074
0.00415046
0.00410059
0.00404346
0.00398175
0.00391837
0.00385619
0.00379786
0.00374563
0.00370124
0.00366603
0.00364117
0.00362809
0.000125867
0.000104566
0.000106487
0.000140641
0.000204188
0.000295
0.000411724
0.000553039
0.000716934
0.000900165
0.00109814
0.0013055
0.0015171
0.00172885
0.00193797
0.00214281
0.00234248
0.00253648
0.00272447
0.00290613
0.00308111
0.00324901
0.00340935
0.00356159
0.00370516
0.00383944
0.00396377
0.00407748
0.00417986
0.00427022
0.00434786
0.00441209
0.0044623
0.00449794
0.00451864
0.00452423
0.00451484
0.00449099
0.0044537
0.00440453
0.00434562
0.00427967
0.00420981
0.00413936
0.00407161
0.0040096
0.00395589
0.00391265
0.00388181
0.00386551
0.000127386
0.000105813
0.000107892
0.000142705
0.000207134
0.00029882
0.000416258
0.000558133
0.000722712
0.000907297
0.00110795
0.00131981
0.00153785
0.00175775
0.00197631
0.00219149
0.00240208
0.00260738
0.00280696
0.00300045
0.00318748
0.00336761
0.00354036
0.00370516
0.0038614
0.00400841
0.00414548
0.00427188
0.00438686
0.00448964
0.00457945
0.00465552
0.00471712
0.00476359
0.00479437
0.00480909
0.00480763
0.0047902
0.0047575
0.00471076
0.00465186
0.00458337
0.00450845
0.00443075
0.00435411
0.00428234
0.00421896
0.00416713
0.00412973
0.00410987
0.000128832
0.000107011
0.000109255
0.000144711
0.000209985
0.000302479
0.000420506
0.000562698
0.000727506
0.000912697
0.00111498
0.00133008
0.00155328
0.00178019
0.00200732
0.00223218
0.00245324
0.00266954
0.0028805
0.00308567
0.00328463
0.00347693
0.00366206
0.00383944
0.00400841
0.00416826
0.00431824
0.00445755
0.00458538
0.00470089
0.00480322
0.00489154
0.00496501
0.00502286
0.0050644
0.00508907
0.00509652
0.00508671
0.00506002
0.00501734
0.00496025
0.00489104
0.0048128
0.00472929
0.00464478
0.0045638
0.00449084
0.00443017
0.00438587
0.00436221
0.000130209
0.000108162
0.00011058
0.000146668
0.00021276
0.000306013
0.000424538
0.000566865
0.000731545
0.000916717
0.00111968
0.0013368
0.00156383
0.00179651
0.00203112
0.00226485
0.00249578
0.00272266
0.0029447
0.00316132
0.00337206
0.00357642
0.00377386
0.00396377
0.00414548
0.00431824
0.00448124
0.00463364
0.00477455
0.00490306
0.00501825
0.00511919
0.00520497
0.0052747
0.00532758
0.0053629
0.00538012
0.00537898
0.00535956
0.00532246
0.00526889
0.00520086
0.00512121
0.0050337
0.00494285
0.00485377
0.00477185
0.00470257
0.00465135
0.00462382
0.000131524
0.000109271
0.000111871
0.000148584
0.000215472
0.00030945
0.00042841
0.000570743
0.000735028
0.000919677
0.00112251
0.00134053
0.00157005
0.00180711
0.00204798
0.00228957
0.00252959
0.00276649
0.00299919
0.00322698
0.00344926
0.0036655
0.00387511
0.00407748
0.00427188
0.00445755
0.00463364
0.00479925
0.00495341
0.00509517
0.0052235
0.00533741
0.0054359
0.00551799
0.00558275
0.00562935
0.00565712
0.00566557
0.00565457
0.00562442
0.00557601
0.00551103
0.00543204
0.00534263
0.00524742
0.00515193
0.00506234
0.00498528
0.00492757
0.00489635
0.000132778
0.000110341
0.000113133
0.000150462
0.000218131
0.000312811
0.000432168
0.000574423
0.000738124
0.000921863
0.00112388
0.00134179
0.00157252
0.00181255
0.00205829
0.00230653
0.00255468
0.00280085
0.00304368
0.00328221
0.00351573
0.0037436
0.0039652
0.00417986
0.00438686
0.00458538
0.00477455
0.00495341
0.00512096
0.00527614
0.00541787
0.00554507
0.00565665
0.00575153
0.00582869
0.00588719
0.00592621
0.00594512
0.00594358
0.00592166
0.00587998
0.0058199
0.00574371
0.00565477
0.00555762
0.00545803
0.00536278
0.00527949
0.00521635
0.00518199
0.000133976
0.000111374
0.000114367
0.000152309
0.000220747
0.000316115
0.000435849
0.000577979
0.000740975
0.000923524
0.0011242
0.00134113
0.00157188
0.00181346
0.00206259
0.00231611
0.00257121
0.00282571
0.00307793
0.00332666
0.00357099
0.00381017
0.00404348
0.00427022
0.00448964
0.00470089
0.00490306
0.00509517
0.00527614
0.00544487
0.0056002
0.00574095
0.00586596
0.00597405
0.00606411
0.00613509
0.00618606
0.00621625
0.00622519
0.00621275
0.00617933
0.00612604
0.00605489
0.005969
0.00587279
0.00577205
0.00567397
0.00558691
0.00552016
0.00548366
0.00013512
0.000112373
0.000115575
0.000154125
0.000223326
0.000319375
0.00043948
0.00058147
0.000743695
0.000924872
0.0011238
0.00133905
0.00156877
0.00181055
0.00206157
0.00231883
0.00257952
0.00284117
0.00310185
0.00336005
0.00361463
0.00386466
0.00410933
0.00434786
0.00457945
0.00480322
0.00501825
0.0052235
0.00541787
0.0056002
0.00576925
0.00592378
0.00606252
0.00618421
0.00628765
0.0063717
0.00643531
0.00647764
0.00649807
0.00649637
0.00647278
0.00642824
0.00636454
0.00628461
0.00619269
0.00609453
0.00599741
0.0059101
0.00584255
0.00580555
0.000136212
0.000113337
0.000116758
0.000155914
0.00022587
0.000322599
0.000443083
0.000584941
0.000746379
0.000926084
0.00112299
0.00133602
0.00156382
0.00180458
0.00205599
0.00231542
0.00258012
0.00284756
0.00311553
0.00338226
0.00364634
0.00390663
0.00416217
0.00441209
0.00465552
0.00489154
0.00511919
0.00533741
0.00554507
0.00574095
0.00592378
0.00609222
0.00624494
0.00638059
0.00649788
0.00659557
0.00667256
0.0067279
0.00676094
0.00677133
0.00675928
0.00672563
0.00667209
0.00660146
0.00651787
0.00642691
0.00633576
0.00625308
0.00618881
0.00615373
0.000137253
0.000114269
0.000117916
0.000157675
0.000228382
0.000325794
0.000446671
0.000588426
0.000749099
0.000927304
0.00112204
0.00133246
0.00155764
0.00179631
0.00204673
0.00230671
0.00257377
0.0028454
0.00311926
0.00339334
0.00366595
0.00393572
0.00420151
0.0044623
0.00471712
0.00496501
0.00520497
0.0054359
0.00565665
0.00586596
0.00606252
0.00624494
0.00641181
0.00656173
0.00669331
0.00680525
0.00689638
0.00696571
0.00701256
0.0070366
0.00703803
0.00701776
0.00697756
0.00692028
0.00684999
0.00677217
0.00669359
0.00662222
0.00656697
0.00653729
0.000138246
0.000115168
0.000119048
0.000159407
0.000230861
0.00032896
0.000450254
0.000591947
0.000751907
0.000928641
0.00112115
0.00132873
0.00155079
0.0017865
0.00203469
0.00229368
0.00256138
0.00283547
0.00311359
0.00339358
0.00367351
0.00395176
0.00422697
0.00449794
0.00476359
0.00502286
0.0052747
0.00551799
0.00575153
0.00597405
0.00618421
0.00638059
0.00656173
0.00672616
0.00687245
0.00699924
0.00710534
0.00718976
0.00725183
0.00729132
0.0073086
0.00730477
0.00728188
0.00724302
0.00719246
0.00713553
0.00707837
0.00702746
0.00698924
0.00696987
0.000139191
0.000116035
0.000120154
0.000161108
0.000233305
0.000332098
0.000453834
0.000595517
0.00075484
0.00093018
0.00112048
0.00132513
0.00154373
0.00177584
0.00202078
0.00227738
0.00254405
0.00281877
0.00309935
0.00338356
0.00366933
0.0039548
0.00423837
0.00451864
0.00479437
0.0050644
0.00532758
0.00558275
0.00582869
0.00606411
0.00628765
0.00649788
0.00669331
0.00687245
0.00703384
0.00717612
0.0072981
0.00739885
0.00747783
0.00753502
0.0075711
0.00758762
0.00758717
0.00757346
0.00755117
0.00752561
0.00750193
0.00748409
0.00747403
0.00747182
0.000140089
0.000116869
0.000121233
0.000162776
0.000235711
0.000335203
0.000457408
0.00059914
0.000757917
0.000931972
0.00112017
0.00132189
0.00153688
0.00176496
0.00200584
0.00225888
0.00252297
0.00279653
0.00307765
0.0033642
0.00365405
0.00394518
0.00423578
0.00452423
0.00480909
0.00508907
0.0053629
0.00562935
0.00588719
0.00613509
0.0063717
0.00659557
0.00680525
0.00699924
0.00717612
0.00733456
0.00747346
0.00759204
0.00769
0.00776771
0.00782643
0.00786847
0.00789739
0.00791794
0.00793562
0.00795587
0.00798236
0.00801502
0.00804853
0.0080729
0.00014094
0.00011767
0.000122282
0.000164408
0.000238073
0.000338268
0.000460968
0.000602809
0.00076114
0.000934045
0.00112028
0.00131919
0.00153055
0.00175438
0.00199068
0.00223922
0.0024994
0.00277012
0.00304984
0.00333671
0.00362867
0.00392363
0.00421962
0.00451484
0.00480763
0.00509652
0.00538012
0.00565712
0.00592621
0.00618606
0.00643531
0.00667256
0.00689638
0.00710534
0.0072981
0.00747346
0.0076305
0.00776873
0.0078883
0.00799024
0.00807671
0.00815128
0.00821907
0.00828647
0.00836042
0.00844654
0.00854632
0.00865351
0.00875167
0.00881538
0.000141744
0.000118437
0.000123299
0.000165998
0.000240384
0.000341283
0.000464505
0.000606516
0.000764506
0.000936412
0.00112087
0.00131713
0.00152499
0.00174452
0.00197594
0.00221935
0.00247456
0.00274097
0.00301749
0.00330263
0.00359456
0.00389128
0.00419074
0.00449099
0.0047902
0.00508671
0.00537898
0.00566557
0.00594512
0.00621625
0.00647764
0.0067279
0.00696571
0.00718976
0.00739885
0.00759204
0.00776873
0.00792895
0.00807355
0.00820462
0.00832578
0.00844255
0.00856238
0.00869426
0.00884715
0.00902694
0.00923174
0.00944606
0.00963703
0.00975679
0.000142502
0.000119168
0.00012428
0.00016754
0.000242634
0.000344236
0.000468001
0.000610242
0.000767997
0.000939064
0.00112195
0.0013158
0.00152036
0.00173571
0.00196219
0.00220011
0.00244961
0.00271053
0.00298226
0.00326374
0.00355349
0.00384971
0.00415046
0.0044537
0.0047575
0.00506002
0.00535956
0.00565457
0.00594358
0.00622519
0.00649807
0.00676094
0.00701256
0.00725183
0.00747783
0.00769
0.0078883
0.00807355
0.00824777
0.00841463
0.00858001
0.00875233
0.00894255
0.00916332
0.00942642
0.00973778
0.0100902
0.0104544
0.0107744
0.0109712
0.000143212
0.000119862
0.000125222
0.000169027
0.000244813
0.000347111
0.000471436
0.000613959
0.000771582
0.000941968
0.00112349
0.00131521
0.00151674
0.00172817
0.00194983
0.00218216
0.00242555
0.00268017
0.00294584
0.00322195
0.00350746
0.00380092
0.00410059
0.00440453
0.00471076
0.00501734
0.00532246
0.00562442
0.00592166
0.00621275
0.00649637
0.00677133
0.0070366
0.00729132
0.00753502
0.00776771
0.00799024
0.00820462
0.00841463
0.00862641
0.0088491
0.00909539
0.00938123
0.00972425
0.0101397
0.0106328
0.0111877
0.0117556
0.0122487
0.0125471
0.000143874
0.000120516
0.00012612
0.000170452
0.000246908
0.00034989
0.000474784
0.000617635
0.00077522
0.000945079
0.00112547
0.00131532
0.00151416
0.00172199
0.00193911
0.00216601
0.00240319
0.00265107
0.0029098
0.00317921
0.0034587
0.00374725
0.00404346
0.00434562
0.00465186
0.00496025
0.00526889
0.00557601
0.00587998
0.00617933
0.00647278
0.00675928
0.00703803
0.0073086
0.0075711
0.00782643
0.00807671
0.00832578
0.00858001
0.0088491
0.00914698
0.00949226
0.00990765
0.0104172
0.0110397
0.0117778
0.0126023
0.0134372
0.0141533
0.0145798
0.000144488
0.00012113
0.000126969
0.000171805
0.000248904
0.000352551
0.000478017
0.000621231
0.00077886
0.000948335
0.0011278
0.00131607
0.00151258
0.0017172
0.00193018
0.00215196
0.00238311
0.00262416
0.00287551
0.00313732
0.00340941
0.00369122
0.00398175
0.00427967
0.00458337
0.00489104
0.00520086
0.00551103
0.0058199
0.00612604
0.00642824
0.00672563
0.00701776
0.00730477
0.00758762
0.00786847
0.00815128
0.00844255
0.00875233
0.00909539
0.00949226
0.00996954
0.0105586
0.0112908
0.0121878
0.0132459
0.0144162
0.0155865
0.0165776
0.0171581
0.000145052
0.000121698
0.000127763
0.000173076
0.000250785
0.000355071
0.0004811
0.000624701
0.000782444
0.000951661
0.0011304
0.00131737
0.00151188
0.00171372
0.00192303
0.00214017
0.00236568
0.00260013
0.00284406
0.00309785
0.00336167
0.00363535
0.00391837
0.00420981
0.00450845
0.0048128
0.00512121
0.00543204
0.00574371
0.00605489
0.00636454
0.00667209
0.00697756
0.00728188
0.00758717
0.00789739
0.00821907
0.00856238
0.00894255
0.00938123
0.00990765
0.0105586
0.0113755
0.0123972
0.0136456
0.0151053
0.0166998
0.0182736
0.0195896
0.0203478
0.000145563
0.000122219
0.000128497
0.000174255
0.000252534
0.000357422
0.000483996
0.000627995
0.000785905
0.000954975
0.00113316
0.00131908
0.00151195
0.00171144
0.00191757
0.00213062
0.00235104
0.00257938
0.00281621
0.00306203
0.00331724
0.003582
0.00385619
0.00413936
0.00443075
0.00472929
0.0050337
0.00534263
0.00565477
0.005969
0.00628461
0.00660146
0.00692028
0.00724302
0.00757346
0.00791794
0.00828647
0.00869426
0.00916332
0.00972425
0.0104172
0.0112908
0.0123972
0.0137809
0.0154596
0.0173998
0.0194915
0.0215313
0.0232204
0.0241786
0.000146021
0.000122689
0.000129163
0.000175327
0.00025413
0.000359576
0.000486664
0.000631057
0.00078917
0.000958179
0.00113597
0.00132107
0.00151261
0.00171016
0.00191363
0.00212318
0.00233917
0.00256207
0.00279239
0.0030307
0.00327749
0.00353314
0.00379786
0.00407161
0.00435411
0.00464478
0.00494285
0.00524742
0.00555762
0.00587279
0.00619269
0.00651787
0.00684999
0.00719246
0.00755117
0.00793562
0.00836042
0.00884715
0.00942642
0.0101397
0.0110397
0.0121878
0.0136456
0.0154596
0.017638
0.0201246
0.0227752
0.0253402
0.0274555
0.0286409
0.000146421
0.000123102
0.000129752
0.000176279
0.000255549
0.000361498
0.000489056
0.000633823
0.000792155
0.000961169
0.00113868
0.00132317
0.00151367
0.00170966
0.00191096
0.00211763
0.00232989
0.00254812
0.00277276
0.00300433
0.00324334
0.0034903
0.00374563
0.0040096
0.00428234
0.0045638
0.00485377
0.00515193
0.00545803
0.00577205
0.00609453
0.00642691
0.00677217
0.00713553
0.00752561
0.00795587
0.00844654
0.00902694
0.00973778
0.0106328
0.0117778
0.0132459
0.0151053
0.0173998
0.0201246
0.0232024
0.0264626
0.0296182
0.0322355
0.0336937
0.000146758
0.000123453
0.000130255
0.000177093
0.000256765
0.000363149
0.000491119
0.000636223
0.00079477
0.000963827
0.00114116
0.0013252
0.00151491
0.00170969
0.00190929
0.00211365
0.00232291
0.00253731
0.00275722
0.00298307
0.00321534
0.00345455
0.00370124
0.00395589
0.00421896
0.00449084
0.00477185
0.00506234
0.00536278
0.00567397
0.00599741
0.00633576
0.00669359
0.00707837
0.00750193
0.00798236
0.00854632
0.00923174
0.0100902
0.0111877
0.0126023
0.0144162
0.0166998
0.0194915
0.0227752
0.0264626
0.0303748
0.0342065
0.0374531
0.0392751
0.000147028
0.000123734
0.00013066
0.000177748
0.000257745
0.000364482
0.000492788
0.000638173
0.000796907
0.000966023
0.00114325
0.00132697
0.00151609
0.00170999
0.00190831
0.00211093
0.00231789
0.00252935
0.00274557
0.00296689
0.00319373
0.0034266
0.00366603
0.00391265
0.00416713
0.00443017
0.00470257
0.00498528
0.00527949
0.00558691
0.0059101
0.00625308
0.00662222
0.00702746
0.00748409
0.00801502
0.00865351
0.00944606
0.0104544
0.0117556
0.0134372
0.0155865
0.0182736
0.0215313
0.0253402
0.0296182
0.0342065
0.0388217
0.0429169
0.045305
0.000147221
0.000123936
0.00013095
0.000178219
0.000258449
0.000365439
0.000493988
0.000639575
0.000798446
0.000967608
0.00114477
0.00132827
0.001517
0.00171029
0.00190773
0.00210915
0.00231453
0.00252396
0.00273761
0.00295575
0.00317875
0.00340704
0.00364117
0.00388181
0.00412973
0.00438587
0.00465135
0.00492757
0.00521635
0.00552016
0.00584255
0.00618881
0.00656697
0.00698924
0.00747403
0.00804853
0.00875167
0.00963703
0.0107744
0.0122487
0.0141533
0.0165776
0.0195896
0.0232204
0.0274555
0.0322355
0.0374531
0.0429169
0.0481814
0.0516372
0.00014733
0.000124047
0.000131107
0.000178471
0.000258825
0.000365946
0.000494616
0.000640303
0.000799235
0.000968409
0.00114552
0.00132889
0.00151741
0.00171037
0.00190735
0.00210816
0.00231272
0.00252109
0.00273341
0.00294991
0.00317089
0.00339677
0.00362809
0.00386551
0.00410987
0.00436221
0.00462382
0.00489635
0.00518199
0.00548366
0.00580555
0.00615373
0.00653729
0.00696987
0.00747182
0.0080729
0.00881538
0.00975679
0.0109712
0.0125471
0.0145798
0.0171581
0.0203478
0.0241786
0.0286409
0.0336937
0.0392751
0.045305
0.0516372
0.0570212
)
;

boundaryField
{
    bottomWall
    {
        type            nutkWallFunction;
        Cmu             0.09;
        kappa           0.41;
        E               9.8;
        value           uniform 0;
    }
    leftWall
    {
        type            nutkWallFunction;
        Cmu             0.09;
        kappa           0.41;
        E               9.8;
        value           uniform 0;
    }
    topSym
    {
        type            symmetryPlane;
    }
    rightSym
    {
        type            symmetryPlane;
    }
    inlet
    {
        type            cyclic;
    }
    outlet
    {
        type            cyclic;
    }
}


// ************************************************************************* //
