/*--------------------------------*- C++ -*----------------------------------*\
| =========                 |                                                 |
| \\      /  F ield         | OpenFOAM: The Open Source CFD Toolbox           |
|  \\    /   O peration     | Version:  v1912                                 |
|   \\  /    A nd           | Website:  www.openfoam.com                      |
|    \\/     M anipulation  |                                                 |
\*---------------------------------------------------------------------------*/
FoamFile
{
    version     2.0;
    format      ascii;
    class       volScalarField;
    location    "1000";
    object      p;
}
// * * * * * * * * * * * * * * * * * * * * * * * * * * * * * * * * * * * * * //

dimensions      [0 2 -2 0 0 0 0];


internalField   nonuniform List<scalar> 
2500
(
7.06971e-12
7.73402e-08
2.90036e-07
6.53116e-07
1.23701e-06
2.1763e-06
3.63336e-06
5.74674e-06
8.58454e-06
1.21288e-05
1.62865e-05
2.0915e-05
2.58496e-05
3.09278e-05
3.60043e-05
4.09593e-05
4.56996e-05
5.01571e-05
5.42837e-05
5.80463e-05
6.1422e-05
6.43931e-05
6.69436e-05
6.90561e-05
7.07101e-05
7.18806e-05
7.25377e-05
7.26467e-05
7.21687e-05
7.10623e-05
6.92851e-05
6.67961e-05
6.35589e-05
5.95448e-05
5.47374e-05
4.91363e-05
4.27638e-05
3.5664e-05
2.79111e-05
1.9615e-05
1.09232e-05
2.01989e-06
-6.87445e-06
-1.55146e-05
-2.36337e-05
-3.09687e-05
-3.72478e-05
-4.22237e-05
-4.55814e-05
-4.7057e-05
7.73403e-08
1.06205e-07
2.91215e-07
6.18973e-07
1.13641e-06
1.96866e-06
3.27382e-06
5.18838e-06
7.78409e-06
1.10552e-05
1.49264e-05
1.92719e-05
2.394e-05
2.87745e-05
3.36317e-05
3.83897e-05
4.29515e-05
4.7245e-05
5.12184e-05
5.48361e-05
5.80736e-05
6.09122e-05
6.33359e-05
6.53276e-05
6.68675e-05
6.79313e-05
6.84898e-05
6.85091e-05
6.79513e-05
6.67753e-05
6.49394e-05
6.24029e-05
5.91296e-05
5.50908e-05
5.02699e-05
4.46663e-05
3.83017e-05
3.12194e-05
2.34925e-05
1.52296e-05
6.57673e-06
-2.28366e-06
-1.11331e-05
-1.97283e-05
-2.78042e-05
-3.50995e-05
-4.13438e-05
-4.62913e-05
-4.96295e-05
-5.11262e-05
2.90036e-07
2.91215e-07
5.47055e-07
1.02622e-06
1.77447e-06
2.93224e-06
4.68732e-06
7.20778e-06
1.05861e-05
1.48289e-05
1.98678e-05
2.55784e-05
3.18035e-05
3.8376e-05
4.51367e-05
5.19459e-05
5.86891e-05
6.52774e-05
7.16446e-05
7.77429e-05
8.35377e-05
8.90019e-05
9.41124e-05
9.88461e-05
0.000103177
0.000107076
0.000110508
0.000113433
0.000115807
0.000117582
0.00011871
0.000119141
0.000118831
0.000117741
0.000115845
0.00011313
0.000109606
0.000105303
0.00010028
9.46308e-05
8.84847e-05
8.20068e-05
7.53966e-05
6.88769e-05
6.26898e-05
5.70707e-05
5.22598e-05
4.84677e-05
4.5964e-05
4.49178e-05
6.53116e-07
6.18973e-07
1.02622e-06
1.91283e-06
3.44547e-06
5.86812e-06
9.43205e-06
1.43458e-05
2.07136e-05
2.85268e-05
3.76818e-05
4.80077e-05
5.92959e-05
7.13265e-05
8.38885e-05
9.6793e-05
0.00010988
0.000123019
0.000136107
0.000149066
0.000161833
0.000174359
0.0001866
0.000198515
0.000210062
0.000221196
0.000231868
0.000242025
0.000251607
0.000260553
0.000268798
0.000276277
0.000282929
0.000288696
0.000293533
0.000297405
0.0003003
0.000302225
0.000303212
0.000303329
0.000302675
0.000301384
0.000299621
0.000297571
0.000295435
0.000293397
0.000291639
0.000290302
0.00028957
0.000289511
1.23701e-06
1.13641e-06
1.77447e-06
3.44547e-06
6.76707e-06
1.23535e-05
2.05058e-05
3.1265e-05
4.45283e-05
6.01138e-05
7.7777e-05
9.72302e-05
0.000118168
0.000140287
0.000163302
0.000186958
0.000211027
0.000235319
0.000259675
0.000283963
0.000308075
0.00033192
0.00035542
0.000378503
0.000401104
0.000423154
0.000444586
0.00046533
0.000485312
0.000504455
0.000522681
0.000539911
0.00055607
0.000571086
0.000584897
0.00059745
0.000608715
0.000618678
0.000627351
0.000634777
0.000641028
0.00064621
0.000650456
0.000653912
0.000656737
0.000659063
0.00066101
0.00066264
0.000664045
0.000665208
2.1763e-06
1.96866e-06
2.93224e-06
5.86812e-06
1.23535e-05
2.38323e-05
4.05394e-05
6.1722e-05
8.64572e-05
0.000114052
0.000144002
0.000175903
0.000209405
0.000244192
0.000279975
0.000316484
0.000353465
0.000390689
0.000427946
0.00046505
0.000501838
0.000538166
0.00057391
0.000608959
0.000643212
0.000676576
0.000708966
0.000740296
0.000770485
0.00079945
0.000827112
0.000853392
0.000878215
0.000901513
0.000923224
0.000943297
0.0009617
0.000978421
0.000993469
0.00100688
0.00101872
0.00102909
0.0010381
0.00104589
0.00105258
0.00105828
0.00106308
0.00106698
0.00107001
0.00107212
3.63336e-06
3.27382e-06
4.68732e-06
9.43205e-06
2.05058e-05
4.05394e-05
6.93973e-05
0.000104625
0.000143657
0.000184943
0.000227734
0.000271664
0.000316534
0.00036221
0.000408569
0.000455469
0.000502743
0.000550203
0.000597642
0.000644851
0.000691624
0.000737764
0.000783091
0.00082744
0.000870663
0.000912628
0.000953219
0.000992331
0.00102987
0.00106575
0.00109989
0.00113223
0.0011627
0.00119124
0.00121783
0.00124241
0.00126498
0.00128554
0.00130413
0.00132079
0.0013356
0.00134867
0.00136011
0.00137007
0.00137867
0.00138602
0.00139218
0.00139716
0.00140095
0.00140348
5.74674e-06
5.18838e-06
7.20778e-06
1.43458e-05
3.1265e-05
6.1722e-05
0.000104625
0.000155008
0.000208152
0.000261596
0.000314545
0.000366922
0.000418902
0.000470712
0.000522555
0.000574562
0.000626779
0.000679166
0.000731615
0.000783958
0.000835993
0.000887495
0.000938232
0.00098798
0.00103652
0.00108367
0.00112924
0.00117308
0.00121505
0.00125505
0.00129298
0.00132876
0.00136234
0.00139367
0.00142271
0.00144947
0.00147394
0.00149617
0.00151619
0.00153409
0.00154997
0.00156394
0.00157616
0.00158675
0.00159588
0.00160365
0.00161015
0.00161537
0.00161933
0.00162193
8.58454e-06
7.78409e-06
1.05861e-05
2.07136e-05
4.45283e-05
8.64572e-05
0.000143657
0.000208152
0.000273122
0.00033553
0.000394864
0.000451554
0.000506249
0.00055959
0.000612131
0.00066431
0.000716441
0.000768711
0.00082119
0.000873843
0.00092655
0.000979124
0.00103133
0.00108292
0.0011336
0.00118312
0.00123122
0.00127765
0.00132222
0.00136473
0.00140503
0.00144302
0.00147858
0.00151166
0.00154223
0.00157028
0.00159581
0.00161889
0.00163959
0.00165799
0.00167423
0.00168845
0.00170081
0.00171147
0.0017206
0.00172833
0.00173476
0.0017399
0.00174379
0.00174633
1.21288e-05
1.10552e-05
1.48289e-05
2.85268e-05
6.01138e-05
0.000114052
0.000184943
0.000261596
0.00033553
0.000403698
0.000466222
0.000524174
0.000578687
0.000630744
0.00068116
0.000730597
0.000779581
0.00082851
0.000877655
0.000927168
0.00097709
0.00102736
0.00107782
0.00112826
0.00117841
0.00122797
0.00127661
0.00132402
0.00136989
0.00141395
0.00145593
0.00149563
0.00153289
0.00156758
0.00159961
0.00162894
0.00165558
0.00167957
0.00170099
0.00171994
0.00173658
0.00175105
0.00176355
0.00177425
0.00178335
0.001791
0.00179732
0.00180235
0.00180613
0.0018086
1.62865e-05
1.49264e-05
1.98678e-05
3.76818e-05
7.7777e-05
0.000144002
0.000227734
0.000314545
0.000394864
0.000466222
0.000529685
0.000587041
0.000639873
0.000689426
0.000736662
0.000782341
0.000827083
0.000871399
0.000915702
0.00096031
0.00100544
0.0010512
0.0010976
0.00114456
0.00119189
0.00123934
0.00128661
0.00133334
0.00137916
0.00142372
0.00146664
0.0015076
0.00154633
0.0015826
0.00161622
0.00164709
0.00167513
0.00170037
0.00172286
0.0017427
0.00176004
0.00177504
0.00178791
0.00179885
0.00180808
0.00181577
0.00182207
0.00182706
0.00183078
0.00183319
2.0915e-05
1.92719e-05
2.55784e-05
4.80077e-05
9.72302e-05
0.000175903
0.000271664
0.000366922
0.000451554
0.000524174
0.000587041
0.0006427
0.000693137
0.000739796
0.000783718
0.000825674
0.000866273
0.000906028
0.000945389
0.000984755
0.00102446
0.00106477
0.00110587
0.00114783
0.00119064
0.0012342
0.00127828
0.00132261
0.00136682
0.00141052
0.00145329
0.0014947
0.00153436
0.00157191
0.00160704
0.00163954
0.00166922
0.00169601
0.00171993
0.00174103
0.00175943
0.0017753
0.00178884
0.00180028
0.00180985
0.00181776
0.00182418
0.00182922
0.00183295
0.00183531
2.58496e-05
2.394e-05
3.18035e-05
5.92959e-05
0.000118168
0.000209405
0.000316534
0.000418902
0.000506249
0.000578687
0.000639873
0.000693137
0.000740814
0.000784496
0.000825263
0.000863866
0.000900853
0.000936668
0.000971712
0.00100637
0.00104099
0.00107594
0.0011115
0.00114791
0.00118533
0.00122382
0.00126334
0.00130374
0.00134478
0.00138612
0.00142735
0.00146802
0.00150765
0.00154579
0.00158199
0.00161589
0.00164718
0.00167565
0.00170123
0.00172388
0.00174366
0.00176071
0.00177522
0.00178742
0.00179757
0.00180587
0.00181256
0.00181776
0.00182157
0.00182392
3.09278e-05
2.87745e-05
3.8376e-05
7.13265e-05
0.000140287
0.000244192
0.00036221
0.000470712
0.00055959
0.000630744
0.000689426
0.000739796
0.000784496
0.000825199
0.000862998
0.000898608
0.000932514
0.000965073
0.000996591
0.00102737
0.00105773
0.001088
0.00111852
0.0011496
0.00118155
0.00121456
0.00124878
0.00128425
0.00132088
0.00135848
0.00139676
0.00143531
0.00147368
0.00151134
0.00154777
0.00158248
0.00161502
0.00164502
0.00167226
0.00169659
0.00171797
0.00173646
0.00175221
0.00176543
0.00177636
0.00178526
0.00179237
0.00179784
0.00180179
0.00180415
3.60043e-05
3.36317e-05
4.51367e-05
8.38885e-05
0.000163302
0.000279975
0.000408569
0.000522555
0.000612131
0.00068116
0.000736662
0.000783718
0.000825263
0.000862998
0.000897973
0.000930856
0.000962075
0.000991911
0.00102058
0.00104828
0.00107523
0.00110171
0.00112801
0.00115447
0.00118142
0.00120918
0.00123802
0.00126815
0.00129966
0.00133256
0.00136672
0.00140187
0.00143764
0.00147358
0.00150913
0.00154373
0.00157683
0.00160789
0.00163654
0.00166247
0.00168551
0.00170558
0.00172277
0.00173721
0.00174915
0.00175883
0.00176651
0.00177237
0.00177653
0.00177894
4.09593e-05
3.83897e-05
5.19459e-05
9.6793e-05
0.000186958
0.000316484
0.000455469
0.000574562
0.00066431
0.000730597
0.000782341
0.000825674
0.000863866
0.000898608
0.000930856
0.000961196
0.000989993
0.00101747
0.00104376
0.00106898
0.00109325
0.00111675
0.00113969
0.00116237
0.00118509
0.00120822
0.00123209
0.00125702
0.00128326
0.001311
0.00134028
0.00137104
0.00140308
0.00143606
0.00146951
0.00150288
0.00153556
0.00156693
0.00159645
0.00162366
0.0016482
0.00166987
0.00168858
0.00170442
0.00171754
0.00172817
0.00173656
0.00174293
0.00174738
0.00174986
4.56996e-05
4.29515e-05
5.86891e-05
0.00010988
0.000211027
0.000353465
0.000502743
0.000626779
0.000716441
0.000779581
0.000827083
0.000866273
0.000900853
0.000932514
0.000962075
0.000989993
0.00101654
0.00104189
0.00106611
0.00108925
0.00111136
0.0011325
0.00115282
0.00117251
0.00119183
0.0012111
0.00123066
0.0012509
0.00127216
0.00129474
0.00131888
0.0013447
0.00137218
0.00140118
0.00143138
0.00146234
0.0014935
0.0015242
0.00155379
0.0015817
0.00160738
0.00163046
0.00165067
0.00166796
0.00168239
0.00169411
0.00170337
0.00171036
0.00171519
0.00171778
5.01571e-05
4.7245e-05
6.52774e-05
0.000123019
0.000235319
0.000390689
0.000550203
0.000679166
0.000768711
0.00082851
0.000871399
0.000906028
0.000936668
0.000965073
0.000991911
0.00101747
0.00104189
0.00106525
0.00108759
0.00110891
0.00112919
0.00114843
0.00116666
0.00118401
0.00120064
0.0012168
0.00123282
0.00124904
0.00126586
0.00128366
0.00130278
0.00132351
0.00134602
0.00137036
0.00139642
0.00142392
0.00145243
0.00148138
0.00151008
0.00153788
0.00156411
0.0015882
0.00160971
0.00162839
0.00164417
0.00165709
0.00166733
0.00167504
0.00168033
0.00168306
5.42837e-05
5.12184e-05
7.16446e-05
0.000136107
0.000259675
0.000427946
0.000597642
0.000731615
0.00082119
0.000877655
0.000915702
0.000945389
0.000971712
0.000996591
0.00102058
0.00104376
0.00106611
0.00108759
0.00110818
0.00112783
0.00114648
0.00116409
0.00118061
0.00119608
0.00121059
0.0012243
0.00123745
0.00125037
0.00126341
0.00127699
0.00129151
0.00130735
0.00132485
0.00134422
0.00136556
0.00138881
0.00141371
0.00143984
0.0014666
0.00149334
0.00151932
0.00154382
0.00156623
0.0015861
0.00160316
0.00161731
0.0016286
0.00163713
0.00164294
0.00164586
5.80463e-05
5.48361e-05
7.77429e-05
0.000149066
0.000283963
0.00046505
0.000644851
0.000783958
0.000873843
0.000927168
0.00096031
0.000984755
0.00100637
0.00102737
0.00104828
0.00106898
0.00108925
0.00110891
0.00112783
0.00114592
0.00116306
0.00117919
0.00119423
0.00120814
0.00122093
0.00123268
0.00124356
0.0012538
0.00126373
0.00127372
0.00128419
0.00129558
0.00130831
0.00132274
0.00133913
0.00135764
0.00137821
0.00140062
0.00142445
0.00144911
0.00147391
0.00149805
0.00152077
0.00154143
0.00155956
0.00157486
0.00158723
0.00159663
0.00160301
0.00160616
6.1422e-05
5.80736e-05
8.35377e-05
0.000161833
0.000308075
0.000501838
0.000691624
0.000835993
0.00092655
0.00097709
0.00100544
0.00102446
0.00104099
0.00105773
0.00107523
0.00109325
0.00111136
0.00112919
0.00114648
0.00116306
0.00117879
0.00119354
0.00120722
0.00121975
0.00123108
0.00124123
0.00125027
0.00125837
0.00126576
0.00127278
0.00127981
0.00128729
0.00129569
0.00130544
0.00131696
0.00133054
0.00134635
0.00136439
0.00138445
0.00140608
0.00142872
0.0014516
0.00147388
0.00149477
0.00151359
0.00152983
0.00154319
0.00155346
0.00156045
0.00156383
6.43931e-05
6.09122e-05
8.90019e-05
0.000174359
0.00033192
0.000538166
0.000737764
0.000887495
0.000979124
0.00102736
0.0010512
0.00106477
0.00107594
0.001088
0.00110171
0.00111675
0.0011325
0.00114843
0.00116409
0.00117919
0.00119354
0.00120698
0.00121938
0.00123063
0.00124066
0.00124943
0.00125694
0.00126327
0.00126861
0.00127319
0.00127735
0.00128149
0.00128608
0.00129159
0.00129851
0.00130725
0.00131817
0.00133145
0.00134711
0.00136492
0.00138449
0.00140516
0.00142614
0.00144653
0.0014655
0.00148234
0.00149649
0.00150755
0.00151512
0.00151874
6.69436e-05
6.33359e-05
9.41124e-05
0.0001866
0.00035542
0.00057391
0.000783091
0.000938232
0.00103133
0.00107782
0.0010976
0.00110587
0.0011115
0.00111852
0.00112801
0.00113969
0.00115282
0.00116666
0.00118061
0.00119423
0.00120722
0.00121938
0.00123053
0.00124057
0.00124938
0.00125689
0.00126306
0.00126791
0.00127153
0.0012741
0.00127589
0.00127722
0.00127854
0.00128031
0.00128303
0.00128723
0.00129334
0.00130174
0.00131264
0.00132605
0.00134177
0.00135936
0.00137812
0.00139718
0.00141562
0.00143253
0.00144715
0.00145879
0.00146686
0.00147069
6.90561e-05
6.53276e-05
9.88461e-05
0.000198515
0.000378503
0.000608959
0.00082744
0.00098798
0.00108292
0.00112826
0.00114456
0.00114783
0.00114791
0.0011496
0.00115447
0.00116237
0.00117251
0.00118401
0.00119608
0.00120814
0.00121975
0.00123063
0.00124057
0.00124941
0.00125704
0.00126336
0.00126829
0.00127182
0.00127397
0.00127484
0.00127464
0.00127362
0.00127216
0.00127068
0.0012697
0.00126973
0.00127131
0.00127492
0.00128095
0.0012896
0.0013009
0.00131465
0.00133033
0.00134719
0.00136429
0.00138063
0.00139522
0.00140715
0.00141553
0.0014195
7.07101e-05
6.68675e-05
0.000103177
0.000210062
0.000401104
0.000643212
0.000870663
0.00103652
0.0011336
0.00117841
0.00119189
0.00119064
0.00118533
0.00118155
0.00118142
0.00118509
0.00119183
0.00120064
0.00121059
0.00122093
0.00123108
0.00124066
0.00124938
0.00125704
0.0012635
0.00126864
0.00127238
0.00127467
0.00127549
0.00127488
0.00127297
0.00126995
0.00126613
0.00126187
0.00125764
0.00125396
0.00125138
0.00125045
0.00125168
0.00125544
0.00126198
0.00127131
0.00128316
0.00129696
0.00131187
0.00132686
0.00134081
0.00135258
0.00136101
0.00136499
7.18806e-05
6.79313e-05
0.000107076
0.000221196
0.000423154
0.000676576
0.000912628
0.00108367
0.00118312
0.00122797
0.00123934
0.0012342
0.00122382
0.00121456
0.00120918
0.00120822
0.0012111
0.0012168
0.0012243
0.00123268
0.00124123
0.00124943
0.00125689
0.00126336
0.00126864
0.00127262
0.00127517
0.00127625
0.00127579
0.00127382
0.00127038
0.00126562
0.00125976
0.0012531
0.00124605
0.00123909
0.00123276
0.00122763
0.00122429
0.00122323
0.00122484
0.00122939
0.00123683
0.00124681
0.00125869
0.0012715
0.00128406
0.0012951
0.00130319
0.00130698
7.25377e-05
6.84898e-05
0.000110508
0.000231868
0.000444586
0.000708966
0.000953219
0.00112924
0.00123122
0.00127661
0.00128661
0.00127828
0.00126334
0.00124878
0.00123802
0.00123209
0.00123066
0.00123282
0.00123745
0.00124356
0.00125027
0.00125694
0.00126306
0.00126829
0.00127238
0.00127517
0.00127654
0.0012764
0.00127469
0.00127139
0.00126652
0.00126018
0.0012525
0.00124374
0.00123421
0.00122436
0.00121467
0.00120572
0.00119811
0.0011924
0.00118914
0.0011887
0.00119132
0.00119688
0.00120495
0.00121474
0.00122512
0.00123473
0.00124199
0.00124535
7.26467e-05
6.85091e-05
0.000113433
0.000242025
0.00046533
0.000740296
0.000992331
0.00117308
0.00127765
0.00132402
0.00133334
0.00132261
0.00130374
0.00128425
0.00126815
0.00125702
0.0012509
0.00124904
0.00125037
0.0012538
0.00125837
0.00126327
0.00126791
0.00127182
0.00127467
0.00127625
0.0012764
0.00127501
0.00127203
0.00126741
0.00126114
0.00125328
0.00124392
0.00123324
0.00122151
0.00120907
0.00119638
0.00118396
0.00117241
0.00116232
0.00115431
0.00114888
0.00114644
0.00114713
0.00115074
0.00115672
0.00116408
0.0011715
0.00117734
0.00117995
7.21687e-05
6.79513e-05
0.000115807
0.000251607
0.000485312
0.000770485
0.00102987
0.00121505
0.00132222
0.00136989
0.00137916
0.00136682
0.00134478
0.00132088
0.00129966
0.00128326
0.00127216
0.00126586
0.00126341
0.00126373
0.00126576
0.00126861
0.00127153
0.00127397
0.00127549
0.00127579
0.00127469
0.00127203
0.00126774
0.00126176
0.00125407
0.0012447
0.00123371
0.00122122
0.00120743
0.00119264
0.00117722
0.00116164
0.00114645
0.00113227
0.00111971
0.00110937
0.00110179
0.00109731
0.00109595
0.00109741
0.00110095
0.00110539
0.00110916
0.00111064
7.10623e-05
6.67753e-05
0.000117582
0.000260553
0.000504455
0.00079945
0.00106575
0.00125505
0.00136473
0.00141395
0.00142372
0.00141052
0.00138612
0.00135848
0.00133256
0.001311
0.00129474
0.00128366
0.00127699
0.00127372
0.00127278
0.00127319
0.0012741
0.00127484
0.00127488
0.00127382
0.00127139
0.00126741
0.00126176
0.00125437
0.00124522
0.0012343
0.00122166
0.00120738
0.00119162
0.00117459
0.00115662
0.0011381
0.00111954
0.00110151
0.00108462
0.00106952
0.0010568
0.00104696
0.00104026
0.00103662
0.00103559
0.00103625
0.00103727
0.00103722
6.92851e-05
6.49394e-05
0.00011871
0.000268798
0.000522681
0.000827112
0.00109989
0.00129298
0.00140503
0.00145593
0.00146664
0.00145329
0.00142735
0.00139676
0.00136672
0.00134028
0.00131888
0.00130278
0.00129151
0.00128419
0.00127981
0.00127735
0.00127589
0.00127464
0.00127297
0.00127038
0.00126652
0.00126114
0.00125407
0.00124522
0.00123453
0.001222
0.00120765
0.00119154
0.00117379
0.00115456
0.00113412
0.0011128
0.00109103
0.00106933
0.0010483
0.00102856
0.00101075
0.000995472
0.000983143
0.000973931
0.000967667
0.000963812
0.000961399
0.000959424
6.67961e-05
6.24029e-05
0.000119141
0.000276277
0.000539911
0.000853392
0.00113223
0.00132876
0.00144302
0.00149563
0.0015076
0.0014947
0.00146802
0.00143531
0.00140187
0.00137104
0.0013447
0.00132351
0.00130735
0.00129558
0.00128729
0.00128149
0.00127722
0.00127362
0.00126995
0.00126562
0.00126018
0.00125328
0.0012447
0.0012343
0.001222
0.00120777
0.00119161
0.00117358
0.00115377
0.00113229
0.00110936
0.00108526
0.00106035
0.00103508
0.00101
0.000985703
0.000962831
0.000942037
0.00092386
0.000908673
0.000896613
0.000887564
0.000881091
0.000876798
6.35589e-05
5.91296e-05
0.000118831
0.000282929
0.00055607
0.000878215
0.0011627
0.00136234
0.00147858
0.00153289
0.00154633
0.00153436
0.00150765
0.00147368
0.00143764
0.00140308
0.00137218
0.00134602
0.00132485
0.00130831
0.00129569
0.00128608
0.00127854
0.00127216
0.00126613
0.00125976
0.0012525
0.00124392
0.00123371
0.00122166
0.00120765
0.00119161
0.00117355
0.00115347
0.00113146
0.00110761
0.00108209
0.00105513
0.00102702
0.000998151
0.000969005
0.000940136
0.000912153
0.000885718
0.000861462
0.000839936
0.000821581
0.000806751
0.000795671
0.000788728
5.95448e-05
5.50908e-05
0.000117741
0.000288696
0.000571086
0.000901513
0.00119124
0.00139367
0.00151166
0.00156758
0.0015826
0.00157191
0.00154579
0.00151134
0.00147358
0.00143606
0.00140118
0.00137036
0.00134422
0.00132274
0.00130544
0.00129159
0.00128031
0.00127068
0.00126187
0.0012531
0.00124374
0.00123324
0.00122122
0.00120738
0.00119154
0.00117358
0.00115347
0.0011312
0.00110683
0.00108043
0.00105214
0.00102212
0.000990642
0.000958013
0.000924645
0.000891035
0.000857753
0.000825442
0.000794806
0.00076656
0.000741459
0.000720367
0.000704266
0.000694443
5.47374e-05
5.02699e-05
0.000115845
0.000293533
0.000584897
0.000923224
0.00121783
0.00142271
0.00154223
0.00159961
0.00161622
0.00160704
0.00158199
0.00154777
0.00150913
0.00146951
0.00143138
0.00139642
0.00136556
0.00133913
0.00131696
0.00129851
0.00128303
0.0012697
0.00125764
0.00124605
0.00123421
0.00122151
0.00120743
0.00119162
0.00117379
0.00115377
0.00113146
0.00110683
0.0010799
0.00105072
0.00101939
0.000986058
0.000950905
0.000914198
0.000876276
0.000837571
0.000798609
0.000760019
0.000722578
0.000687183
0.000654939
0.000627265
0.000605947
0.000593179
4.91363e-05
4.46663e-05
0.00011313
0.000297405
0.00059745
0.000943297
0.00124241
0.00144947
0.00157028
0.00162894
0.00164709
0.00163954
0.00161589
0.00158248
0.00154373
0.00150288
0.00146234
0.00142392
0.00138881
0.00135764
0.00133054
0.00130725
0.00128723
0.00126973
0.00125396
0.00123909
0.00122436
0.00120907
0.00119264
0.00117459
0.00115456
0.00113229
0.00110761
0.00108043
0.00105072
0.0010185
0.000983826
0.000946797
0.000907553
0.000866293
0.00082329
0.000778915
0.000733662
0.000688183
0.000643363
0.000600362
0.000560715
0.000526432
0.000500066
0.000484561
4.27638e-05
3.83017e-05
0.000109606
0.0003003
0.000608715
0.0009617
0.00126498
0.00147394
0.00159581
0.00165558
0.00167513
0.00166922
0.00164718
0.00161502
0.00157683
0.00153556
0.0014935
0.00145243
0.00141371
0.00137821
0.00134635
0.00131817
0.00129334
0.00127131
0.00125138
0.00123276
0.00121467
0.00119638
0.00117722
0.00115662
0.00113412
0.00110936
0.00108209
0.00105214
0.00101939
0.000983826
0.000945435
0.00090426
0.000860381
0.000813928
0.000765109
0.000714251
0.000661854
0.000608672
0.000555815
0.000504856
0.000457882
0.000417499
0.000386844
0.000369209
3.5664e-05
3.12194e-05
0.000105303
0.000302225
0.000618678
0.000978421
0.00128554
0.00149617
0.00161889
0.00167957
0.00170037
0.00169601
0.00167565
0.00164502
0.00160789
0.00156693
0.0015242
0.00148138
0.00143984
0.00140062
0.00136439
0.00133145
0.00130174
0.00127492
0.00125045
0.00122763
0.00120572
0.00118396
0.00116164
0.0011381
0.0011128
0.00108526
0.00105513
0.00102212
0.000986058
0.000946797
0.00090426
0.000858405
0.000809225
0.000756774
0.0007012
0.000642821
0.000582229
0.000520434
0.000458995
0.000400122
0.000346581
0.000301474
0.000268104
0.000249446
2.79111e-05
2.34925e-05
0.00010028
0.000303212
0.000627351
0.000993469
0.00130413
0.00151619
0.00163959
0.00170099
0.00172286
0.00171993
0.00170123
0.00167226
0.00163654
0.00159645
0.00155379
0.00151008
0.0014666
0.00142445
0.00138445
0.00134711
0.00131264
0.00128095
0.00125168
0.00122429
0.00119811
0.00117241
0.00114645
0.00111954
0.00109103
0.00106035
0.00102702
0.000990642
0.000950905
0.000907553
0.000860381
0.000809225
0.000753968
0.000694567
0.00063113
0.000564046
0.000494169
0.000423023
0.00035295
0.000287052
0.000228806
0.000181469
0.000147825
0.000129706
1.9615e-05
1.52296e-05
9.46308e-05
0.000303329
0.000634777
0.00100688
0.00132079
0.00153409
0.00165799
0.00171994
0.0017427
0.00174103
0.00172388
0.00169659
0.00166247
0.00162366
0.0015817
0.00153788
0.00149334
0.00144911
0.00140608
0.00136492
0.00132605
0.0012896
0.00125544
0.00122323
0.0011924
0.00116232
0.00113227
0.00110151
0.00106933
0.00103508
0.000998151
0.000958013
0.000914198
0.000866293
0.000813928
0.000756774
0.000694567
0.000627166
0.000554698
0.000477779
0.000397804
0.000317203
0.000239471
0.000168753
0.000108983
6.29172e-05
3.19717e-05
1.61149e-05
1.09232e-05
6.57673e-06
8.84847e-05
0.000302675
0.000641028
0.00101872
0.0013356
0.00154997
0.00167423
0.00173658
0.00176004
0.00175943
0.00174366
0.00171797
0.00168551
0.0016482
0.00160738
0.00156411
0.00151932
0.00147391
0.00142872
0.00138449
0.00134177
0.0013009
0.00126198
0.00122484
0.00118914
0.00115431
0.00111971
0.00108462
0.0010483
0.00101
0.000969005
0.000924645
0.000876276
0.00082329
0.000765109
0.0007012
0.00063113
0.000554698
0.000472183
0.000384701
0.0002946
0.000205655
0.000122753
5.08877e-05
-6.23044e-06
-4.72223e-05
-7.27453e-05
-8.49504e-05
2.01989e-06
-2.28366e-06
8.20068e-05
0.000301384
0.00064621
0.00102909
0.00134867
0.00156394
0.00168845
0.00175105
0.00177504
0.0017753
0.00176071
0.00173646
0.00170558
0.00166987
0.00163046
0.0015882
0.00154382
0.00149805
0.0014516
0.00140516
0.00135936
0.00131465
0.00127131
0.00122939
0.0011887
0.00114888
0.00110937
0.00106952
0.00102856
0.000985703
0.000940136
0.000891035
0.000837571
0.000778915
0.000714251
0.000642821
0.000564046
0.000477779
0.000384701
0.000286834
0.000187943
9.3435e-05
9.41666e-06
-5.90001e-05
-0.000109329
-0.000142304
-0.000160825
-0.000168787
-6.87445e-06
-1.11331e-05
7.53966e-05
0.000299621
0.000650456
0.0010381
0.00136011
0.00157616
0.00170081
0.00176355
0.00178791
0.00178884
0.00177522
0.00175221
0.00172277
0.00168858
0.00165067
0.00160971
0.00156623
0.00152077
0.00147388
0.00142614
0.00137812
0.00133033
0.00128316
0.00123683
0.00119132
0.00114644
0.00110179
0.0010568
0.00101075
0.000962831
0.000912153
0.000857753
0.000798609
0.000733662
0.000661854
0.000582229
0.000494169
0.000397804
0.0002946
0.000187943
8.33199e-05
-1.23888e-05
-9.265e-05
-0.000153374
-0.000194174
-0.000218041
-0.000229602
-0.000233661
-1.55146e-05
-1.97283e-05
6.88769e-05
0.000297571
0.000653912
0.00104589
0.00137007
0.00158675
0.00171147
0.00177425
0.00179885
0.00180028
0.00178742
0.00176543
0.00173721
0.00170442
0.00166796
0.00162839
0.0015861
0.00154143
0.00149477
0.00144653
0.00139718
0.00134719
0.00129696
0.00124681
0.00119688
0.00114713
0.00109731
0.00104696
0.000995472
0.000942037
0.000885718
0.000825442
0.000760019
0.000688183
0.000608672
0.000520434
0.000423023
0.000317203
0.000205655
9.3435e-05
-1.23888e-05
-0.000104275
-0.000176508
-0.000227056
-0.00025786
-0.000273569
-0.000279581
-0.00028074
-2.36337e-05
-2.78042e-05
6.26898e-05
0.000295435
0.000656737
0.00105258
0.00137867
0.00159588
0.0017206
0.00178335
0.00180808
0.00180985
0.00179757
0.00177636
0.00174915
0.00171754
0.00168239
0.00164417
0.00160316
0.00155956
0.00151359
0.0014655
0.00141562
0.00136429
0.00131187
0.00125869
0.00120495
0.00115074
0.00109595
0.00104026
0.000983143
0.00092386
0.000861462
0.000794806
0.000722578
0.000643363
0.000555815
0.000458995
0.00035295
0.000239471
0.000122753
9.41666e-06
-9.265e-05
-0.000176508
-0.000238405
-0.000278719
-0.000301156
-0.000311004
-0.000313507
-0.000312976
-3.09687e-05
-3.50995e-05
5.70707e-05
0.000293397
0.000659063
0.00105828
0.00138602
0.00160365
0.00172833
0.001791
0.00181577
0.00181776
0.00180587
0.00178526
0.00175883
0.00172817
0.00169411
0.00165709
0.00161731
0.00157486
0.00152983
0.00148234
0.00143253
0.00138063
0.00132686
0.0012715
0.00121474
0.00115672
0.00109741
0.00103662
0.000973931
0.000908673
0.000839936
0.00076656
0.000687183
0.000600362
0.000504856
0.000400122
0.000287052
0.000168753
5.08877e-05
-5.90001e-05
-0.000153374
-0.000227056
-0.000278719
-0.000310691
-0.000327466
-0.000334062
-0.000334991
-0.000333815
-3.72478e-05
-4.13438e-05
5.22598e-05
0.000291639
0.00066101
0.00106308
0.00139218
0.00161015
0.00173476
0.00179732
0.00182207
0.00182418
0.00181256
0.00179237
0.00176651
0.00173656
0.00170337
0.00166733
0.0016286
0.00158723
0.00154319
0.00149649
0.00144715
0.00139522
0.00134081
0.00128406
0.00122512
0.00116408
0.00110095
0.00103559
0.000967667
0.000896613
0.000821581
0.000741459
0.000654939
0.000560715
0.000457882
0.000346581
0.000228806
0.000108983
-6.23044e-06
-0.000109329
-0.000194174
-0.00025786
-0.000301156
-0.000327466
-0.000341228
-0.000346701
-0.000347486
-0.000346399
-4.22237e-05
-4.62913e-05
4.84677e-05
0.000290302
0.00066264
0.00106698
0.00139716
0.00161537
0.0017399
0.00180235
0.00182706
0.00182922
0.00181776
0.00179784
0.00177237
0.00174293
0.00171036
0.00167504
0.00163713
0.00159663
0.00155346
0.00150755
0.00145879
0.00140715
0.00135258
0.0012951
0.00123473
0.0011715
0.00110539
0.00103625
0.000963812
0.000887564
0.000806751
0.000720367
0.000627265
0.000526432
0.000417499
0.000301474
0.000181469
6.29172e-05
-4.72223e-05
-0.000142304
-0.000218041
-0.000273569
-0.000311004
-0.000334062
-0.000346701
-0.000352372
-0.000353851
-0.000353289
-4.55814e-05
-4.96295e-05
4.5964e-05
0.00028957
0.000664045
0.00107001
0.00140095
0.00161933
0.00174379
0.00180613
0.00183078
0.00183295
0.00182157
0.00180179
0.00177653
0.00174738
0.00171519
0.00168033
0.00164294
0.00160301
0.00156045
0.00151512
0.00146686
0.00141553
0.00136101
0.00130319
0.00124199
0.00117734
0.00110916
0.00103727
0.000961399
0.000881091
0.000795671
0.000704266
0.000605947
0.000500066
0.000386844
0.000268104
0.000147825
3.19717e-05
-7.27453e-05
-0.000160825
-0.000229602
-0.000279581
-0.000313507
-0.000334991
-0.000347486
-0.000353851
-0.000356295
-0.000356451
-4.7057e-05
-5.11262e-05
4.49178e-05
0.000289511
0.000665208
0.00107212
0.00140348
0.00162193
0.00174633
0.0018086
0.00183319
0.00183531
0.00182392
0.00180415
0.00177894
0.00174986
0.00171778
0.00168306
0.00164586
0.00160616
0.00156383
0.00151874
0.00147069
0.0014195
0.00136499
0.00130698
0.00124535
0.00117995
0.00111064
0.00103722
0.000959424
0.000876798
0.000788728
0.000694443
0.000593179
0.000484561
0.000369209
0.000249446
0.000129706
1.61149e-05
-8.49504e-05
-0.000168787
-0.000233661
-0.00028074
-0.000312976
-0.000333815
-0.000346399
-0.000353289
-0.000356451
-0.000357132
)
;

boundaryField
{
    bottomWall
    {
        type            zeroGradient;
    }
    leftWall
    {
        type            zeroGradient;
    }
    topSym
    {
        type            symmetryPlane;
    }
    rightSym
    {
        type            symmetryPlane;
    }
    inlet
    {
        type            cyclic;
    }
    outlet
    {
        type            cyclic;
    }
}


// ************************************************************************* //
