/*--------------------------------*- C++ -*----------------------------------*\
| =========                 |                                                 |
| \\      /  F ield         | OpenFOAM: The Open Source CFD Toolbox           |
|  \\    /   O peration     | Version:  v1912                                 |
|   \\  /    A nd           | Website:  www.openfoam.com                      |
|    \\/     M anipulation  |                                                 |
\*---------------------------------------------------------------------------*/
FoamFile
{
    version     2.0;
    format      ascii;
    class       surfaceScalarField;
    location    "1000";
    object      phi;
}
// * * * * * * * * * * * * * * * * * * * * * * * * * * * * * * * * * * * * * //

dimensions      [0 3 -1 0 0 0 0];
oriented        oriented;


internalField   nonuniform List<scalar> 
4900
(
-6.65494e-15
-6.78639e-15
-7.46404e-11
7.46337e-11
-2.91198e-10
2.16557e-10
-7.59794e-10
4.68596e-10
-1.56885e-09
8.09054e-10
-2.67782e-09
1.10897e-09
-3.85703e-09
1.17921e-09
-4.72465e-09
8.67617e-10
-4.86548e-09
1.40838e-10
-3.95118e-09
-9.143e-10
-1.80966e-09
-2.14153e-09
1.56371e-09
-3.37337e-09
6.03703e-09
-4.47331e-09
1.13926e-08
-5.35556e-09
1.73777e-08
-5.98515e-09
2.37451e-08
-6.36736e-09
3.02782e-08
-6.53311e-09
3.6804e-08
-6.5258e-09
4.31954e-08
-6.39134e-09
4.93671e-08
-6.17172e-09
5.52689e-08
-5.90182e-09
6.0877e-08
-5.60812e-09
6.6186e-08
-5.30904e-09
7.12019e-08
-5.01581e-09
7.59355e-08
-4.73361e-09
8.03983e-08
-4.46281e-09
8.45983e-08
-4.19997e-09
8.85369e-08
-3.93867e-09
9.22071e-08
-3.67021e-09
9.55912e-08
-3.38403e-09
9.86593e-08
-3.06813e-09
1.01369e-07
-2.70935e-09
1.03662e-07
-2.29375e-09
1.05469e-07
-1.80691e-09
1.06704e-07
-1.23472e-09
1.07269e-07
-5.64895e-10
1.07058e-07
2.10494e-10
1.05958e-07
1.10034e-09
1.03849e-07
2.10922e-09
1.00616e-07
3.23296e-09
9.61576e-08
4.45831e-09
9.03953e-08
5.76228e-09
8.32839e-08
7.11143e-09
7.48188e-08
8.46512e-09
6.5039e-08
9.77979e-09
5.40187e-08
1.10203e-08
4.18517e-08
1.2167e-08
2.86446e-08
1.32071e-08
1.46275e-08
1.40171e-08
1.46275e-08
7.46339e-11
-7.46406e-11
7.4634e-11
7.46337e-11
-1.748e-10
4.65991e-10
-8.70705e-10
1.1645e-09
-2.14847e-09
2.08682e-09
-3.87183e-09
2.83233e-09
-5.50455e-09
2.81193e-09
-6.20245e-09
1.56551e-09
-5.07495e-09
-9.86657e-10
-1.44012e-09
-4.54914e-09
5.03407e-09
-8.61571e-09
1.43127e-08
-1.2652e-08
2.6065e-08
-1.62256e-08
3.97762e-08
-1.90667e-08
5.48588e-08
-2.10678e-08
7.07415e-08
-2.225e-08
8.69252e-08
-2.27168e-08
1.03011e-07
-2.2612e-08
1.18707e-07
-2.20874e-08
1.33818e-07
-2.1282e-08
1.48227e-07
-2.03115e-08
1.61883e-07
-1.92639e-08
1.74775e-07
-1.82005e-08
1.86918e-07
-1.71588e-08
1.9834e-07
-1.6156e-08
2.0907e-07
-1.51932e-08
2.19129e-07
-1.42586e-08
2.28521e-07
-1.33303e-08
2.37229e-07
-1.23785e-08
2.45212e-07
-1.13669e-08
2.52398e-07
-1.02543e-08
2.58684e-07
-8.99534e-09
2.63932e-07
-7.54187e-09
2.67969e-07
-5.84415e-09
2.70588e-07
-3.85318e-09
2.71549e-07
-1.52626e-09
2.70594e-07
1.16561e-09
2.67442e-07
4.25258e-09
2.618e-07
7.75068e-09
2.53387e-07
1.16465e-08
2.4195e-07
1.58953e-08
2.27293e-07
2.04186e-08
2.09302e-07
2.51025e-08
1.87961e-07
2.98067e-08
1.63358e-07
3.43826e-08
1.35672e-07
3.8706e-08
1.0513e-07
4.27096e-08
7.19968e-08
4.63399e-08
3.68174e-08
4.91965e-08
5.14449e-08
2.16557e-10
-2.91198e-10
4.65991e-10
-1.748e-10
4.65991e-10
4.65991e-10
7.54821e-12
1.62294e-09
-9.91814e-10
3.08618e-09
-2.25292e-09
4.09344e-09
-2.93518e-09
3.49419e-09
-1.78879e-09
4.19119e-10
2.43529e-09
-5.21073e-09
1.06302e-08
-1.2744e-08
2.3168e-08
-2.11535e-08
3.99052e-08
-2.93893e-08
6.02961e-08
-3.66165e-08
8.35504e-08
-4.23211e-08
1.08787e-07
-4.63043e-08
1.35154e-07
-4.86168e-08
1.61906e-07
-4.94691e-08
1.88445e-07
-4.91512e-08
2.14327e-07
-4.79695e-08
2.39251e-07
-4.62059e-08
2.63036e-07
-4.40961e-08
2.85593e-07
-4.18212e-08
3.06901e-07
-3.9508e-08
3.26977e-07
-3.72348e-08
3.45859e-07
-3.50381e-08
3.63586e-07
-3.29208e-08
3.80186e-07
-3.08584e-08
3.95661e-07
-2.88047e-08
4.09978e-07
-2.66959e-08
4.23066e-07
-2.44546e-08
4.34803e-07
-2.19915e-08
4.45016e-07
-1.92085e-08
4.53475e-07
-1.60004e-08
4.59889e-07
-1.22588e-08
4.63912e-07
-7.87586e-09
4.65143e-07
-2.7571e-09
4.63145e-07
3.16399e-09
4.57444e-07
9.95302e-09
4.47549e-07
1.76456e-08
4.32981e-07
2.62149e-08
4.1331e-07
3.55657e-08
3.88201e-07
4.55281e-08
3.57448e-07
5.58554e-08
3.21013e-07
6.62414e-08
2.79034e-07
7.63617e-08
2.318e-07
8.59396e-08
1.79688e-07
9.48224e-08
1.23148e-07
1.02879e-07
6.30484e-08
1.09297e-07
1.14493e-07
4.68596e-10
-7.59794e-10
1.1645e-09
-8.70705e-10
1.62294e-09
7.54819e-12
1.62294e-09
1.62294e-09
1.30671e-09
3.40241e-09
1.30874e-09
4.09141e-09
2.8839e-09
1.91903e-09
7.64364e-09
-4.34062e-09
1.70071e-08
-1.45742e-08
3.1826e-08
-2.75629e-08
5.22896e-08
-4.16172e-08
7.80086e-08
-5.51083e-08
1.08179e-07
-6.67865e-08
1.41765e-07
-7.59071e-08
1.77664e-07
-8.22034e-08
2.14829e-07
-8.5782e-08
2.52349e-07
-8.6989e-08
2.89487e-07
-8.62893e-08
3.2569e-07
-8.41729e-08
3.60577e-07
-8.10922e-08
3.93909e-07
-7.74285e-08
4.25565e-07
-7.34769e-08
4.55503e-07
-6.94464e-08
4.83736e-07
-6.54678e-08
5.10302e-07
-6.16035e-08
5.3524e-07
-5.78592e-08
5.58576e-07
-5.41944e-08
5.80303e-07
-5.05312e-08
6.00367e-07
-4.67607e-08
6.18661e-07
-4.27487e-08
6.3501e-07
-3.83403e-08
6.49165e-07
-3.33635e-08
6.60798e-07
-2.76334e-08
6.69498e-07
-2.09581e-08
6.74768e-07
-1.31468e-08
6.76041e-07
-4.02919e-09
6.72687e-07
6.51732e-09
6.64032e-07
1.86087e-08
6.49368e-07
3.23089e-08
6.28008e-07
4.75747e-08
5.99332e-07
6.42423e-08
5.62846e-07
8.20144e-08
5.18243e-07
1.00458e-07
4.65452e-07
1.19032e-07
4.04652e-07
1.37162e-07
3.36242e-07
1.54349e-07
2.60754e-07
1.70311e-07
1.78837e-07
1.84796e-07
9.16533e-08
1.9648e-07
2.06147e-07
8.09054e-10
-1.56885e-09
2.08682e-09
-2.14847e-09
3.08618e-09
-9.91814e-10
3.40241e-09
1.30671e-09
3.40241e-09
3.40241e-09
4.4197e-09
3.07412e-09
8.52361e-09
-2.18488e-09
1.77956e-08
-1.36127e-08
3.36088e-08
-3.03874e-08
5.64313e-08
-5.03853e-08
8.59835e-08
-7.11694e-08
1.21472e-07
-9.05964e-08
1.61797e-07
-1.07112e-07
2.05728e-07
-1.19838e-07
2.52034e-07
-1.2851e-07
2.99578e-07
-1.33326e-07
3.47376e-07
-1.34787e-07
3.94626e-07
-1.33539e-07
4.40715e-07
-1.30262e-07
4.85207e-07
-1.25584e-07
5.27817e-07
-1.20039e-07
5.68386e-07
-1.14046e-07
6.06844e-07
-1.07904e-07
6.43181e-07
-1.01805e-07
6.7742e-07
-9.58424e-08
7.09588e-07
-9.00269e-08
7.39694e-07
-8.43009e-08
7.67713e-07
-7.85494e-08
7.93561e-07
-7.26095e-08
8.17091e-07
-6.62782e-08
8.38069e-07
-5.93185e-08
8.56171e-07
-5.14657e-08
8.70972e-07
-4.24338e-08
8.81938e-07
-3.19241e-08
8.88429e-07
-1.96384e-08
8.89707e-07
-5.30698e-09
8.84955e-07
1.12694e-08
8.73293e-07
3.0271e-08
8.53802e-07
5.17992e-08
8.25584e-07
7.57932e-08
7.87822e-07
1.02004e-07
7.39863e-07
1.29974e-07
6.8129e-07
1.5903e-07
6.1199e-07
1.88332e-07
5.32173e-07
2.16979e-07
4.42341e-07
2.44181e-07
3.43179e-07
2.69473e-07
2.35533e-07
2.92442e-07
1.2082e-07
3.11193e-07
3.26967e-07
1.10897e-09
-2.67782e-09
2.83233e-09
-3.87183e-09
4.09344e-09
-2.25292e-09
4.09141e-09
1.30874e-09
3.07412e-09
4.4197e-09
3.07412e-09
3.07412e-09
7.44747e-09
-6.55823e-09
1.92467e-08
-2.54119e-08
3.99886e-08
-5.11293e-08
6.96763e-08
-8.00729e-08
1.07398e-07
-1.08891e-07
1.5183e-07
-1.35029e-07
2.01524e-07
-1.56806e-07
2.55052e-07
-1.73366e-07
3.11083e-07
-1.84541e-07
3.68431e-07
-1.90674e-07
4.26074e-07
-1.9243e-07
4.83171e-07
-1.90636e-07
5.39058e-07
-1.86149e-07
5.93241e-07
-1.79767e-07
6.45374e-07
-1.72173e-07
6.95239e-07
-1.6391e-07
7.4271e-07
-1.55375e-07
7.87731e-07
-1.46826e-07
8.30281e-07
-1.38392e-07
8.7035e-07
-1.30097e-07
9.07915e-07
-1.21866e-07
9.42912e-07
-1.13547e-07
9.7522e-07
-1.04917e-07
1.00464e-06
-9.56975e-08
1.03088e-06
-8.55556e-08
1.05353e-06
-7.41183e-08
1.07207e-06
-6.09793e-08
1.08586e-06
-4.57125e-08
1.09411e-06
-2.78895e-08
1.09593e-06
-7.11824e-09
1.0903e-06
1.68994e-08
1.07615e-06
4.44197e-08
1.05236e-06
7.5591e-08
1.01781e-06
1.10335e-07
9.71514e-07
1.48303e-07
9.12642e-07
1.88845e-07
8.40669e-07
2.31004e-07
7.55432e-07
2.73569e-07
6.57166e-07
3.15245e-07
5.4647e-07
3.54877e-07
4.24178e-07
3.91765e-07
2.91334e-07
4.25286e-07
1.49573e-07
4.52954e-07
4.7654e-07
1.17921e-09
-3.85703e-09
2.81193e-09
-5.50455e-09
3.49419e-09
-2.93518e-09
1.91903e-09
2.8839e-09
-2.18488e-09
8.52361e-09
-6.55823e-09
7.44747e-09
-6.55823e-09
-6.55823e-09
2.41598e-09
-3.43861e-08
2.28176e-08
-7.15309e-08
5.47733e-08
-1.12029e-07
9.69881e-08
-1.51106e-07
1.47612e-07
-1.85653e-07
2.04738e-07
-2.13931e-07
2.66607e-07
-2.35235e-07
3.31673e-07
-2.49607e-07
3.98604e-07
-2.57604e-07
4.66269e-07
-2.60095e-07
5.33728e-07
-2.58095e-07
6.00219e-07
-2.52641e-07
6.65147e-07
-2.44694e-07
7.28061e-07
-2.35087e-07
7.8864e-07
-2.24489e-07
8.46664e-07
-2.134e-07
9.01989e-07
-2.02151e-07
9.5452e-07
-1.90923e-07
1.00418e-06
-1.79755e-07
1.05088e-06
-1.68566e-07
1.0945e-06
-1.57168e-07
1.13486e-06
-1.45282e-07
1.17171e-06
-1.32545e-07
1.20468e-06
-1.18523e-07
1.23328e-06
-1.02722e-07
1.2569e-06
-8.46009e-08
1.27478e-06
-6.35868e-08
1.28599e-06
-3.91017e-08
1.28948e-06
-1.0609e-08
1.28407e-06
2.23112e-08
1.26849e-06
6.00012e-08
1.24141e-06
1.02666e-07
1.20154e-06
1.50209e-07
1.14767e-06
2.02173e-07
1.07883e-06
2.57685e-07
9.9438e-07
3.15453e-07
8.94107e-07
3.73841e-07
7.78267e-07
4.31086e-07
6.47549e-07
4.85595e-07
5.02943e-07
5.36372e-07
3.4569e-07
5.82539e-07
1.77633e-07
6.21011e-07
6.54173e-07
8.67617e-10
-4.72465e-09
1.56551e-09
-6.20245e-09
4.19118e-10
-1.78879e-09
-4.34062e-09
7.64365e-09
-1.36127e-08
1.77956e-08
-2.54119e-08
1.92467e-08
-3.43861e-08
2.41598e-09
-3.43861e-08
-3.43861e-08
-2.12897e-08
-8.46273e-08
6.15076e-09
-1.39469e-07
4.70092e-08
-1.91964e-07
9.92529e-08
-2.37896e-07
1.6054e-07
-2.75218e-07
2.28638e-07
-3.03333e-07
3.01585e-07
-3.22555e-07
3.77716e-07
-3.33735e-07
4.55633e-07
-3.38012e-07
5.34176e-07
-3.36638e-07
6.12391e-07
-3.30856e-07
6.89505e-07
-3.21808e-07
7.64905e-07
-3.10487e-07
8.38115e-07
-2.97699e-07
9.08772e-07
-2.84057e-07
9.76602e-07
-2.69981e-07
1.04139e-06
-2.55711e-07
1.10295e-06
-2.41318e-07
1.16111e-06
-2.26725e-07
1.21566e-06
-2.11717e-07
1.26634e-06
-1.95959e-07
1.3128e-06
-1.7901e-07
1.35461e-06
-1.6033e-07
1.39119e-06
-1.39297e-07
1.42181e-06
-1.15222e-07
1.44559e-06
-8.73715e-08
1.46149e-06
-5.50007e-08
1.46829e-06
-1.74092e-08
1.46464e-06
2.59678e-08
1.44907e-06
7.5567e-08
1.42008e-06
1.31657e-07
1.37616e-06
1.94129e-07
1.31593e-06
2.62399e-07
1.23827e-06
3.35347e-07
1.14242e-06
4.11306e-07
1.02811e-06
4.88147e-07
8.95629e-07
5.63569e-07
7.45755e-07
6.35469e-07
5.79635e-07
7.02491e-07
3.98721e-07
7.63453e-07
2.05056e-07
8.14676e-07
8.59228e-07
1.40838e-10
-4.86548e-09
-9.86657e-10
-5.07495e-09
-5.21073e-09
2.43529e-09
-1.45742e-08
1.70071e-08
-3.03874e-08
3.36088e-08
-5.11293e-08
3.99886e-08
-7.15309e-08
2.28176e-08
-8.46273e-08
-2.12897e-08
-8.46273e-08
-8.46273e-08
-6.8445e-08
-1.55651e-07
-3.56851e-08
-2.24724e-07
1.21903e-08
-2.85772e-07
7.28031e-08
-3.35831e-07
1.43542e-07
-3.74072e-07
2.21939e-07
-4.00952e-07
3.05822e-07
-4.17618e-07
3.93348e-07
-4.25537e-07
4.82978e-07
-4.26268e-07
5.7344e-07
-4.21318e-07
6.6369e-07
-4.12059e-07
7.52879e-07
-3.99675e-07
8.40317e-07
-3.85138e-07
9.25453e-07
-3.69192e-07
1.00784e-06
-3.52364e-07
1.08709e-06
-3.34968e-07
1.1629e-06
-3.17122e-07
1.23494e-06
-2.98763e-07
1.30288e-06
-2.7966e-07
1.36635e-06
-2.59433e-07
1.42491e-06
-2.37564e-07
1.47798e-06
-2.13406e-07
1.52489e-06
-1.86208e-07
1.5648e-06
-1.55127e-07
1.59668e-06
-1.19257e-07
1.61935e-06
-7.76725e-08
1.63144e-06
-2.94943e-08
1.6314e-06
2.60085e-08
1.61759e-06
8.93746e-08
1.58831e-06
1.60943e-07
1.54185e-06
2.40588e-07
1.47665e-06
3.27594e-07
1.39144e-06
4.20564e-07
1.28533e-06
5.17409e-07
1.15803e-06
6.1545e-07
1.00982e-06
7.11774e-07
8.41604e-07
8.0369e-07
6.5468e-07
8.89415e-07
4.50726e-07
9.67407e-07
2.31993e-07
1.03341e-06
1.09122e-06
-9.143e-10
-3.95118e-09
-4.54914e-09
-1.44012e-09
-1.2744e-08
1.06302e-08
-2.75629e-08
3.1826e-08
-5.03853e-08
5.64313e-08
-8.00729e-08
6.96763e-08
-1.12029e-07
5.47733e-08
-1.39469e-07
6.15076e-09
-1.55651e-07
-6.8445e-08
-1.55651e-07
-1.55651e-07
-1.37118e-07
-2.43257e-07
-1.00067e-07
-3.22823e-07
-4.61584e-08
-3.89739e-07
2.20831e-08
-4.42314e-07
1.01872e-07
-4.80741e-07
1.90527e-07
-5.06272e-07
2.85642e-07
-5.20653e-07
3.85151e-07
-5.25777e-07
4.8732e-07
-5.23487e-07
5.9071e-07
-5.15449e-07
6.9414e-07
-5.03106e-07
7.96641e-07
-4.87638e-07
8.97413e-07
-4.69965e-07
9.95793e-07
-4.50743e-07
1.09121e-06
-4.30386e-07
1.18316e-06
-4.09071e-07
1.27116e-06
-3.86763e-07
1.35472e-06
-3.63226e-07
1.43333e-06
-3.3804e-07
1.50638e-06
-3.10613e-07
1.57317e-06
-2.80198e-07
1.63287e-06
-2.45909e-07
1.68449e-06
-2.06744e-07
1.72685e-06
-1.61619e-07
1.7586e-06
-1.09419e-07
1.77818e-06
-4.90718e-08
1.78385e-06
2.03359e-08
1.77377e-06
9.94522e-08
1.74603e-06
1.88685e-07
1.69872e-06
2.87894e-07
1.6301e-06
3.96215e-07
1.53872e-06
5.11947e-07
1.4236e-06
6.32532e-07
1.28437e-06
7.54678e-07
1.12136e-06
8.74785e-07
9.35554e-07
9.89492e-07
7.28458e-07
1.09651e-06
5.01977e-07
1.19389e-06
2.58584e-07
1.2768e-06
1.34981e-06
-2.14153e-09
-1.80966e-09
-8.61571e-09
5.03407e-09
-2.11535e-08
2.3168e-08
-4.16172e-08
5.22896e-08
-7.11694e-08
8.59835e-08
-1.08891e-07
1.07398e-07
-1.51106e-07
9.69881e-08
-1.91964e-07
4.70092e-08
-2.24724e-07
-3.56851e-08
-2.43257e-07
-1.37118e-07
-2.43257e-07
-2.43257e-07
-2.22737e-07
-3.43344e-07
-1.8184e-07
-4.30636e-07
-1.22261e-07
-5.01892e-07
-4.65815e-08
-5.56421e-07
4.22781e-08
-5.95131e-07
1.41427e-07
-6.19802e-07
2.48217e-07
-6.32567e-07
3.60331e-07
-6.356e-07
4.75803e-07
-6.30922e-07
5.92996e-07
-6.20298e-07
7.10554e-07
-6.05197e-07
8.27359e-07
-5.86769e-07
9.42471e-07
-5.65855e-07
1.05509e-06
-5.43001e-07
1.16449e-06
-5.18472e-07
1.27e-06
-4.92277e-07
1.37096e-06
-4.64184e-07
1.46666e-06
-4.33739e-07
1.55632e-06
-4.00279e-07
1.63908e-06
-3.62952e-07
1.7139e-06
-3.20736e-07
1.77962e-06
-2.72465e-07
1.83487e-06
-2.16869e-07
1.87809e-06
-1.52633e-07
1.9075e-06
-7.84842e-08
1.92115e-06
6.68584e-09
1.91696e-06
1.03644e-07
1.89278e-06
2.12861e-07
1.8465e-06
3.34174e-07
1.77616e-06
4.66556e-07
1.68014e-06
6.07969e-07
1.55733e-06
7.55337e-07
1.40733e-06
9.04686e-07
1.23046e-06
1.05165e-06
1.02785e-06
1.1921e-06
8.01188e-07
1.32318e-06
5.52639e-07
1.44244e-06
2.84918e-07
1.54452e-06
1.63472e-06
-3.37337e-09
1.56371e-09
-1.2652e-08
1.43127e-08
-2.93893e-08
3.99052e-08
-5.51083e-08
7.80086e-08
-9.05964e-08
1.21472e-07
-1.35029e-07
1.5183e-07
-1.85653e-07
1.47612e-07
-2.37896e-07
9.92529e-08
-2.85772e-07
1.21903e-08
-3.22823e-07
-1.00067e-07
-3.43344e-07
-2.22737e-07
-3.43344e-07
-3.43344e-07
-3.20964e-07
-4.53015e-07
-2.76342e-07
-5.46515e-07
-2.11136e-07
-6.21627e-07
-1.27951e-07
-6.78317e-07
-2.9823e-08
-7.1793e-07
8.01604e-08
-7.42551e-07
1.99103e-07
-7.54543e-07
3.24426e-07
-7.56245e-07
4.5391e-07
-7.49782e-07
5.85687e-07
-7.36974e-07
7.18199e-07
-7.19281e-07
8.50142e-07
-6.97798e-07
9.80407e-07
-6.73266e-07
1.10802e-06
-6.46085e-07
1.23208e-06
-6.16339e-07
1.35172e-06
-5.83821e-07
1.46603e-06
-5.48051e-07
1.57405e-06
-5.08297e-07
1.6747e-06
-4.63597e-07
1.76674e-06
-4.12784e-07
1.8488e-06
-3.54518e-07
1.91926e-06
-2.87331e-07
1.97632e-06
-2.09696e-07
2.01796e-06
-1.20127e-07
2.04196e-06
-1.73125e-08
2.04596e-06
9.96493e-08
2.02755e-06
2.31274e-07
1.98435e-06
3.77371e-07
1.91418e-06
5.36727e-07
1.81522e-06
7.0693e-07
1.68622e-06
8.84331e-07
1.52671e-06
1.0642e-06
1.33705e-06
1.24131e-06
1.11847e-06
1.41068e-06
8.72877e-07
1.56877e-06
6.0273e-07
1.71258e-06
3.11011e-07
1.83624e-06
1.94573e-06
-4.47331e-09
6.03703e-09
-1.62256e-08
2.6065e-08
-3.66165e-08
6.02961e-08
-6.67865e-08
1.08179e-07
-1.07112e-07
1.61797e-07
-1.56806e-07
2.01524e-07
-2.13931e-07
2.04738e-07
-2.75218e-07
1.6054e-07
-3.35831e-07
7.28031e-08
-3.89739e-07
-4.61584e-08
-4.30636e-07
-1.8184e-07
-4.53015e-07
-3.20964e-07
-4.53015e-07
-4.53015e-07
-4.28788e-07
-5.70742e-07
-3.8041e-07
-6.70005e-07
-3.09481e-07
-7.49245e-07
-2.18615e-07
-8.08796e-07
-1.10946e-07
-8.50219e-07
1.0253e-08
-8.75742e-07
1.41843e-07
-8.87835e-07
2.80976e-07
-8.88915e-07
4.2516e-07
-8.81158e-07
5.72269e-07
-8.66389e-07
7.20506e-07
-8.46035e-07
8.68348e-07
-8.21108e-07
1.01448e-06
-7.92213e-07
1.15771e-06
-7.59569e-07
1.29692e-06
-7.23033e-07
1.43099e-06
-6.82123e-07
1.55874e-06
-6.36049e-07
1.67888e-06
-5.83738e-07
1.78997e-06
-5.23869e-07
1.89036e-06
-4.54908e-07
1.9782e-06
-3.75171e-07
2.0514e-06
-2.82901e-07
2.10765e-06
-1.76379e-07
2.14442e-06
-5.40801e-08
2.15902e-06
8.50552e-08
2.14872e-06
2.41574e-07
2.11085e-06
4.15241e-07
2.04294e-06
6.04635e-07
1.94294e-06
8.06926e-07
1.80945e-06
1.01782e-06
1.64188e-06
1.23177e-06
1.44064e-06
1.44255e-06
1.20706e-06
1.64426e-06
9.43299e-07
1.83253e-06
6.52114e-07
2.00377e-06
3.36798e-07
2.15156e-06
2.28253e-06
-5.35556e-09
1.13926e-08
-1.90667e-08
3.97762e-08
-4.23211e-08
8.35504e-08
-7.59071e-08
1.41765e-07
-1.19838e-07
2.05728e-07
-1.73366e-07
2.55052e-07
-2.35235e-07
2.66607e-07
-3.03333e-07
2.28638e-07
-3.74072e-07
1.43542e-07
-4.42314e-07
2.20831e-08
-5.01892e-07
-1.22261e-07
-5.46515e-07
-2.76342e-07
-5.70742e-07
-4.28788e-07
-5.70742e-07
-5.70742e-07
-5.44629e-07
-6.96118e-07
-4.92398e-07
-8.01476e-07
-4.15585e-07
-8.8561e-07
-3.16799e-07
-9.49004e-07
-1.99266e-07
-9.93275e-07
-6.64291e-08
-1.02067e-06
7.83354e-08
-1.03368e-06
2.31902e-07
-1.03472e-06
3.91488e-07
-1.02598e-06
5.54679e-07
-1.00923e-06
7.19401e-07
-9.85831e-07
8.83869e-07
-9.5668e-07
1.0465e-06
-9.22205e-07
1.20586e-06
-8.82392e-07
1.36055e-06
-8.36811e-07
1.50915e-06
-7.84643e-07
1.65013e-06
-7.24718e-07
1.78181e-06
-6.55554e-07
1.90232e-06
-5.75415e-07
2.00952e-06
-4.82373e-07
2.10103e-06
-3.74411e-07
2.17421e-06
-2.49554e-07
2.22616e-06
-1.06038e-07
2.25384e-06
5.73819e-08
2.25413e-06
2.41281e-07
2.224e-06
4.45365e-07
2.16066e-06
6.67975e-07
2.06177e-06
9.05816e-07
1.92571e-06
1.15389e-06
1.75179e-06
1.40569e-06
1.54039e-06
1.65395e-06
1.29299e-06
1.89166e-06
1.01199e-06
2.11353e-06
7.00495e-07
2.31527e-06
3.62133e-07
2.48992e-06
2.64467e-06
-5.98515e-09
1.73777e-08
-2.10678e-08
5.48588e-08
-4.63043e-08
1.08787e-07
-8.22034e-08
1.77664e-07
-1.2851e-07
2.52034e-07
-1.84541e-07
3.11083e-07
-2.49607e-07
3.31673e-07
-3.22555e-07
3.01585e-07
-4.00952e-07
2.21939e-07
-4.80741e-07
1.01872e-07
-5.56421e-07
-4.65815e-08
-6.21627e-07
-2.11136e-07
-6.70005e-07
-3.8041e-07
-6.96118e-07
-5.44629e-07
-6.96118e-07
-6.96118e-07
-6.68056e-07
-8.29538e-07
-6.11838e-07
-9.41828e-07
-5.28928e-07
-1.03191e-06
-4.21932e-07
-1.10027e-06
-2.94152e-07
-1.14845e-06
-1.49197e-07
-1.17864e-06
9.32059e-09
-1.19324e-06
1.77989e-07
-1.19464e-06
3.53713e-07
-1.18495e-06
5.33756e-07
-1.16587e-06
7.15727e-07
-1.13865e-06
8.9752e-07
-1.104e-06
1.07725e-06
-1.06212e-06
1.25314e-06
-1.0127e-06
1.42346e-06
-9.54968e-07
1.58643e-06
-8.8768e-07
1.74009e-06
-8.09219e-07
1.88232e-06
-7.17639e-07
2.0107e-06
-6.10754e-07
2.12254e-06
-4.86256e-07
2.21486e-06
-3.41871e-07
2.28439e-06
-1.75568e-07
2.32765e-06
1.41202e-08
2.34111e-06
2.27822e-07
2.32131e-06
4.65167e-07
2.26505e-06
7.24235e-07
2.16965e-06
1.00122e-06
2.03322e-06
1.29032e-06
1.8549e-06
1.584e-06
1.63507e-06
1.87379e-06
1.3753e-06
2.15142e-06
1.07825e-06
2.41057e-06
7.47405e-07
2.64612e-06
3.86784e-07
2.85054e-06
3.03145e-06
-6.36736e-09
2.37451e-08
-2.225e-08
7.07415e-08
-4.86168e-08
1.35154e-07
-8.5782e-08
2.14829e-07
-1.33326e-07
2.99578e-07
-1.90674e-07
3.68431e-07
-2.57604e-07
3.98604e-07
-3.33735e-07
3.77716e-07
-4.17618e-07
3.05822e-07
-5.06272e-07
1.90527e-07
-5.95131e-07
4.22781e-08
-6.78317e-07
-1.27951e-07
-7.49245e-07
-3.09481e-07
-8.01476e-07
-4.92398e-07
-8.29538e-07
-6.68056e-07
-8.29538e-07
-8.29538e-07
-7.99446e-07
-9.7192e-07
-7.3907e-07
-1.09229e-06
-6.49804e-07
-1.18954e-06
-5.34242e-07
-1.26401e-06
-3.95763e-07
-1.31711e-06
-2.38138e-07
-1.35087e-06
-6.52223e-08
-1.36756e-06
1.19272e-07
-1.36944e-06
3.11911e-07
-1.35851e-06
5.09598e-07
-1.33634e-06
7.09569e-07
-1.30397e-06
9.09347e-07
-1.2619e-06
1.10666e-06
-1.21002e-06
1.29934e-06
-1.14765e-06
1.48525e-06
-1.07359e-06
1.66213e-06
-9.86097e-07
1.82754e-06
-8.83055e-07
1.9788e-06
-7.62013e-07
2.11289e-06
-6.2035e-07
2.22649e-06
-4.55463e-07
2.31592e-06
-2.65002e-07
2.37728e-06
-4.72378e-08
2.40654e-06
1.98561e-07
2.39977e-06
4.7194e-07
2.35329e-06
7.70708e-07
2.26401e-06
1.09049e-06
2.1297e-06
1.42463e-06
1.94929e-06
1.76442e-06
1.72305e-06
2.10002e-06
1.45269e-06
2.42179e-06
1.14111e-06
2.72214e-06
7.92205e-07
2.99503e-06
4.10425e-07
3.23232e-06
3.44187e-06
-6.53311e-09
3.02782e-08
-2.27168e-08
8.69252e-08
-4.94691e-08
1.61906e-07
-8.6989e-08
2.52349e-07
-1.34787e-07
3.47376e-07
-1.9243e-07
4.26074e-07
-2.60095e-07
4.66269e-07
-3.38012e-07
4.55633e-07
-4.25537e-07
3.93348e-07
-5.20653e-07
2.85642e-07
-6.19802e-07
1.41427e-07
-7.1793e-07
-2.9823e-08
-8.08796e-07
-2.18615e-07
-8.8561e-07
-4.15585e-07
-9.41828e-07
-6.11838e-07
-9.7192e-07
-7.99446e-07
-9.7192e-07
-9.7192e-07
-9.39699e-07
-1.12451e-06
-8.7496e-07
-1.25428e-06
-7.79023e-07
-1.35995e-06
-6.54473e-07
-1.44166e-06
-5.04765e-07
-1.50057e-06
-3.33842e-07
-1.53848e-06
-1.45812e-07
-1.55747e-06
5.529e-08
-1.55962e-06
2.65656e-07
-1.5467e-06
4.81782e-07
-1.5201e-06
7.00477e-07
-1.48059e-06
9.18819e-07
-1.42836e-06
1.13408e-06
-1.36291e-06
1.34361e-06
-1.28312e-06
1.54475e-06
-1.18724e-06
1.73471e-06
-1.07301e-06
1.91045e-06
-9.37754e-07
2.06864e-06
-7.78534e-07
2.20556e-06
-5.92391e-07
2.31718e-06
-3.76622e-07
2.39913e-06
-1.29185e-07
2.44687e-06
1.50825e-07
2.45593e-06
4.62878e-07
2.42212e-06
8.04518e-07
2.34184e-06
1.17078e-06
2.21243e-06
1.55404e-06
2.03254e-06
1.94431e-06
1.80232e-06
2.33024e-06
1.52353e-06
2.70058e-06
1.19935e-06
3.04633e-06
8.34063e-07
3.36031e-06
4.32637e-07
3.63375e-06
3.87451e-06
-6.5258e-09
3.6804e-08
-2.2612e-08
1.03011e-07
-4.91512e-08
1.88445e-07
-8.62893e-08
2.89487e-07
-1.33539e-07
3.94626e-07
-1.90636e-07
4.83171e-07
-2.58095e-07
5.33728e-07
-3.36638e-07
5.34176e-07
-4.26268e-07
4.82978e-07
-5.25777e-07
3.85151e-07
-6.32567e-07
2.48217e-07
-7.42551e-07
8.01604e-08
-8.50219e-07
-1.10946e-07
-9.49004e-07
-3.16799e-07
-1.03191e-06
-5.28928e-07
-1.09229e-06
-7.3907e-07
-1.12451e-06
-9.39699e-07
-1.12451e-06
-1.12451e-06
-1.09004e-06
-1.28874e-06
-1.0207e-06
-1.4293e-06
-9.17718e-07
-1.54464e-06
-7.83687e-07
-1.6346e-06
-6.22146e-07
-1.70002e-06
-4.3722e-07
-1.7424e-06
-2.33294e-07
-1.76354e-06
-1.4758e-08
-1.76524e-06
2.14165e-07
-1.74902e-06
4.49507e-07
-1.71593e-06
6.87581e-07
-1.66643e-06
9.24941e-07
-1.60027e-06
1.15831e-06
-1.51648e-06
1.38446e-06
-1.41339e-06
1.60013e-06
-1.28868e-06
1.80185e-06
-1.13947e-06
1.98589e-06
-9.62579e-07
2.14818e-06
-7.54676e-07
2.28424e-06
-5.12681e-07
2.38925e-06
-2.34203e-07
2.45817e-06
8.19103e-08
2.48595e-06
4.35096e-07
2.46783e-06
8.22645e-07
2.39963e-06
1.23898e-06
2.27821e-06
1.67546e-06
2.10182e-06
2.12069e-06
1.87045e-06
2.56162e-06
1.58584e-06
2.98519e-06
1.25143e-06
3.38074e-06
8.71949e-07
3.73979e-06
4.52891e-07
4.0528e-06
4.3274e-06
-6.39134e-09
4.31954e-08
-2.20874e-08
1.18707e-07
-4.79695e-08
2.14327e-07
-8.41729e-08
3.2569e-07
-1.30262e-07
4.40715e-07
-1.86149e-07
5.39058e-07
-2.52641e-07
6.00219e-07
-3.30856e-07
6.12391e-07
-4.21318e-07
5.7344e-07
-5.23487e-07
4.8732e-07
-6.356e-07
3.60331e-07
-7.54543e-07
1.99103e-07
-8.75742e-07
1.0253e-08
-9.93275e-07
-1.99266e-07
-1.10027e-06
-4.21932e-07
-1.18954e-06
-6.49804e-07
-1.25428e-06
-8.7496e-07
-1.28874e-06
-1.09004e-06
-1.28874e-06
-1.28874e-06
-1.25189e-06
-1.46615e-06
-1.17766e-06
-1.61888e-06
-1.06721e-06
-1.74505e-06
-9.23145e-07
-1.84409e-06
-7.49096e-07
-1.91645e-06
-5.49397e-07
-1.96324e-06
-3.28741e-07
-1.9859e-06
-9.19152e-08
-1.98584e-06
1.56385e-07
-1.96423e-06
4.11664e-07
-1.92171e-06
6.69656e-07
-1.85826e-06
9.263e-07
-1.77313e-06
1.17767e-06
-1.66476e-06
1.41984e-06
-1.53085e-06
1.64883e-06
-1.36846e-06
1.8604e-06
-1.17415e-06
2.05001e-06
-9.44285e-07
2.21274e-06
-6.75417e-07
2.34331e-06
-3.64777e-07
2.43614e-06
-1.09155e-08
2.4856e-06
3.85639e-07
2.4863e-06
8.2194e-07
2.43347e-06
1.29181e-06
2.32339e-06
1.78554e-06
2.15386e-06
2.29022e-06
1.92457e-06
2.79091e-06
1.63725e-06
3.27251e-06
1.29554e-06
3.72245e-06
9.04614e-07
4.13071e-06
4.70548e-07
4.48687e-06
4.79795e-06
-6.17172e-09
4.93671e-08
-2.1282e-08
1.33818e-07
-4.62059e-08
2.39251e-07
-8.10922e-08
3.60577e-07
-1.25584e-07
4.85207e-07
-1.79767e-07
5.93241e-07
-2.44694e-07
6.65147e-07
-3.21808e-07
6.89505e-07
-4.12059e-07
6.6369e-07
-5.15449e-07
5.9071e-07
-6.30922e-07
4.75803e-07
-7.56245e-07
3.24426e-07
-8.87835e-07
1.41843e-07
-1.02067e-06
-6.64291e-08
-1.14845e-06
-2.94152e-07
-1.26401e-06
-5.34242e-07
-1.35995e-06
-7.79023e-07
-1.4293e-06
-1.0207e-06
-1.46615e-06
-1.25189e-06
-1.46615e-06
-1.46615e-06
-1.42676e-06
-1.65827e-06
-1.34732e-06
-1.82449e-06
-1.22893e-06
-1.96247e-06
-1.07421e-06
-2.07117e-06
-8.86919e-07
-2.15053e-06
-6.71626e-07
-2.20119e-06
-4.33376e-07
-2.22409e-06
-1.77407e-07
-2.2202e-06
9.10459e-08
-2.19016e-06
3.66876e-07
-2.13409e-06
6.45147e-07
-2.0514e-06
9.21077e-07
-1.94069e-06
1.18997e-06
-1.79974e-06
1.4471e-06
-1.62559e-06
1.68761e-06
-1.41466e-06
1.90638e-06
-1.16306e-06
2.09799e-06
-8.67019e-07
2.2566e-06
-5.23392e-07
2.3761e-06
-1.30416e-07
2.45026e-06
3.11487e-07
2.47305e-06
7.99144e-07
2.43905e-06
1.3258e-06
2.34392e-06
1.88067e-06
2.18494e-06
2.44921e-06
1.96144e-06
3.01441e-06
1.67503e-06
3.55892e-06
1.32954e-06
4.06794e-06
9.30579e-07
4.52968e-06
4.84844e-07
4.9326e-06
5.28279e-06
-5.90182e-09
5.52689e-08
-2.03115e-08
1.48227e-07
-4.40961e-08
2.63036e-07
-7.74285e-08
3.93909e-07
-1.20039e-07
5.27817e-07
-1.72173e-07
6.45374e-07
-2.35087e-07
7.28061e-07
-3.10487e-07
7.64905e-07
-3.99675e-07
7.52879e-07
-5.03106e-07
6.9414e-07
-6.20298e-07
5.92996e-07
-7.49782e-07
4.5391e-07
-8.88915e-07
2.80976e-07
-1.03368e-06
7.83354e-08
-1.17864e-06
-1.49197e-07
-1.31711e-06
-3.95763e-07
-1.44166e-06
-6.54473e-07
-1.54464e-06
-9.17718e-07
-1.61888e-06
-1.17766e-06
-1.65827e-06
-1.42676e-06
-1.65827e-06
-1.65827e-06
-1.61617e-06
-1.86659e-06
-1.53117e-06
-2.04747e-06
-1.40433e-06
-2.19801e-06
-1.23829e-06
-2.31657e-06
-1.03698e-06
-2.4025e-06
-8.05239e-07
-2.45583e-06
-5.48527e-07
-2.47691e-06
-2.72601e-07
-2.46609e-06
1.66863e-08
-2.42338e-06
3.13518e-07
-2.34823e-06
6.12178e-07
-2.23935e-06
9.07042e-07
-2.09461e-06
1.19251e-06
-1.91106e-06
1.46293e-06
-1.68507e-06
1.71245e-06
-1.41259e-06
1.93497e-06
-1.08954e-06
2.12407e-06
-7.12492e-07
2.27303e-06
-2.7937e-07
2.37496e-06
2.09555e-07
2.42321e-06
7.50891e-07
2.41168e-06
1.33734e-06
2.33535e-06
1.95699e-06
2.19094e-06
2.59362e-06
1.97736e-06
3.22799e-06
1.69605e-06
3.84023e-06
1.35096e-06
4.41303e-06
9.48127e-07
4.93251e-06
4.94885e-07
5.38585e-06
5.77768e-06
-5.60812e-09
6.0877e-08
-1.92639e-08
1.61883e-07
-4.18212e-08
2.85593e-07
-7.34769e-08
4.25565e-07
-1.14046e-07
5.68386e-07
-1.6391e-07
6.95239e-07
-2.24489e-07
7.8864e-07
-2.97699e-07
8.38115e-07
-3.85138e-07
8.40317e-07
-4.87638e-07
7.96641e-07
-6.05197e-07
7.10554e-07
-7.36974e-07
5.85687e-07
-8.81158e-07
4.2516e-07
-1.03472e-06
2.31902e-07
-1.19324e-06
9.32059e-09
-1.35087e-06
-2.38138e-07
-1.50057e-06
-5.04765e-07
-1.6346e-06
-7.83687e-07
-1.74505e-06
-1.06721e-06
-1.82449e-06
-1.34732e-06
-1.86659e-06
-1.61617e-06
-1.86659e-06
-1.86659e-06
-1.82159e-06
-2.09247e-06
-1.73066e-06
-2.28894e-06
-1.59482e-06
-2.45242e-06
-1.41676e-06
-2.58056e-06
-1.20062e-06
-2.67197e-06
-9.51588e-07
-2.72595e-06
-6.75581e-07
-2.7421e-06
-3.78966e-07
-2.72e-06
-6.83175e-08
-2.65888e-06
2.49728e-07
-2.5574e-06
5.68547e-07
-2.41343e-06
8.81536e-07
-2.22405e-06
1.18206e-06
-1.9856e-06
1.46339e-06
-1.69391e-06
1.71858e-06
-1.34473e-06
1.94045e-06
-9.3437e-07
2.12159e-06
-4.6051e-07
2.25443e-06
7.67226e-08
2.33159e-06
6.73726e-07
2.3463e-06
1.32263e-06
2.29286e-06
2.01043e-06
2.16738e-06
2.7191e-06
1.9683e-06
3.42707e-06
1.69684e-06
4.11169e-06
1.35703e-06
4.75283e-06
9.55299e-07
5.33424e-06
4.99649e-07
5.8415e-06
6.27733e-06
-5.30904e-09
6.6186e-08
-1.82005e-08
1.74775e-07
-3.9508e-08
3.06901e-07
-6.94464e-08
4.55503e-07
-1.07904e-07
6.06844e-07
-1.55375e-07
7.4271e-07
-2.134e-07
8.46664e-07
-2.84057e-07
9.08772e-07
-3.69192e-07
9.25453e-07
-4.69965e-07
8.97413e-07
-5.86769e-07
8.27359e-07
-7.19281e-07
7.18199e-07
-8.66389e-07
5.72269e-07
-1.02598e-06
3.91488e-07
-1.19464e-06
1.77989e-07
-1.36756e-06
-6.52224e-08
-1.53848e-06
-3.33842e-07
-1.70002e-06
-6.22146e-07
-1.84409e-06
-9.23145e-07
-1.96247e-06
-1.22893e-06
-2.04747e-06
-1.53117e-06
-2.09247e-06
-1.82159e-06
-2.09247e-06
-2.09247e-06
-2.04437e-06
-2.33704e-06
-1.94712e-06
-2.54967e-06
-1.80169e-06
-2.72598e-06
-1.61091e-06
-2.86275e-06
-1.37914e-06
-2.95772e-06
-1.11199e-06
-3.00925e-06
-8.15933e-07
-3.01605e-06
-4.98041e-07
-2.97677e-06
-1.65727e-07
-2.88971e-06
1.7342e-07
-2.75257e-06
5.11727e-07
-2.56235e-06
8.41464e-07
-2.31533e-06
1.15482e-06
-2.00727e-06
1.44386e-06
-1.63377e-06
1.70046e-06
-1.19097e-06
1.91634e-06
-6.76395e-07
2.08315e-06
-9.00837e-08
2.19273e-06
5.64141e-07
2.23758e-06
1.27779e-06
2.21132e-06
2.03669e-06
2.10941e-06
2.82101e-06
1.92984e-06
3.60664e-06
1.67356e-06
4.36797e-06
1.34465e-06
5.08174e-06
9.49903e-07
5.72899e-06
4.97981e-07
6.29342e-06
6.77531e-06
-5.01581e-09
7.12019e-08
-1.71588e-08
1.86918e-07
-3.72348e-08
3.26977e-07
-6.54679e-08
4.83736e-07
-1.01805e-07
6.43181e-07
-1.46826e-07
7.87731e-07
-2.02151e-07
9.01989e-07
-2.69981e-07
9.76602e-07
-3.52364e-07
1.00784e-06
-4.50743e-07
9.95793e-07
-5.65855e-07
9.42471e-07
-6.97798e-07
8.50142e-07
-8.46035e-07
7.20506e-07
-1.00923e-06
5.54679e-07
-1.18495e-06
3.53713e-07
-1.36944e-06
1.19272e-07
-1.55747e-06
-1.45812e-07
-1.7424e-06
-4.3722e-07
-1.91645e-06
-7.49096e-07
-2.07117e-06
-1.07421e-06
-2.19801e-06
-1.40433e-06
-2.28894e-06
-1.73066e-06
-2.33704e-06
-2.04437e-06
-2.33704e-06
-2.33704e-06
-2.28563e-06
-2.60108e-06
-2.18164e-06
-2.82997e-06
-2.02605e-06
-3.01834e-06
-1.82184e-06
-3.16193e-06
-1.57367e-06
-3.25741e-06
-1.28766e-06
-3.30207e-06
-9.70926e-07
-3.2935e-06
-6.31381e-07
-3.22925e-06
-2.77407e-07
-3.10655e-06
8.2304e-08
-2.92207e-06
4.38876e-07
-2.67191e-06
7.83299e-07
-2.35169e-06
1.10645e-06
-1.95692e-06
1.39909e-06
-1.48361e-06
1.6519e-06
-9.29203e-07
1.85556e-06