/*--------------------------------*- C++ -*----------------------------------*\
| =========                 |                                                 |
| \\      /  F ield         | OpenFOAM: The Open Source CFD Toolbox           |
|  \\    /   O peration     | Version:  v1912                                 |
|   \\  /    A nd           | Website:  www.openfoam.com                      |
|    \\/     M anipulation  |                                                 |
\*---------------------------------------------------------------------------*/
FoamFile
{
    version     2.0;
    format      ascii;
    class       volSymmTensorField;
    location    "1000";
    object      turbulenceProperties:R;
}
// * * * * * * * * * * * * * * * * * * * * * * * * * * * * * * * * * * * * * //

dimensions      [0 2 -2 0 0 0 0];


internalField   nonuniform List<symmTensor> 
2500
(
(0.000864466 -3.6305e-05 -3.6305e-05 0.000864467 1.64557e-09 0.000864467)
(0.00092472 -2.74108e-05 -8.69117e-05 0.000924723 -4.97748e-10 0.000924717)
(0.00106473 -2.54527e-05 -0.000137826 0.00106474 3.70705e-09 0.00106472)
(0.00128247 -2.52179e-05 -0.000196625 0.0012825 1.70511e-08 0.00128245)
(0.0015675 -2.57658e-05 -0.000266228 0.00156755 4.69942e-08 0.00156747)
(0.00190658 -2.65111e-05 -0.000346926 0.00190664 9.89189e-08 0.00190655)
(0.0022866 -2.71121e-05 -0.000437719 0.00228666 1.67473e-07 0.00228658)
(0.00269592 -2.73985e-05 -0.000537059 0.00269597 2.32082e-07 0.00269595)
(0.00312481 -2.73124e-05 -0.000643254 0.00312482 2.60541e-07 0.00312493)
(0.00356537 -2.68637e-05 -0.000754643 0.00356532 2.1844e-07 0.0035656)
(0.00401132 -2.61044e-05 -0.0008697 0.00401121 7.82922e-08 0.00401169)
(0.00445778 -2.51032e-05 -0.000987095 0.00445761 -1.75031e-07 0.00445829)
(0.00490106 -2.39297e-05 -0.00110571 0.00490083 -5.43115e-07 0.00490171)
(0.00533849 -2.26497e-05 -0.00122462 0.00533823 -1.01612e-06 0.00533929)
(0.00576828 -2.1322e-05 -0.00134316 0.005768 -1.5766e-06 0.00576922)
(0.00618933 -1.99887e-05 -0.00146082 0.00618904 -2.20353e-06 0.0061904)
(0.00660106 -1.86811e-05 -0.00157724 0.00660077 -2.87565e-06 0.00660227)
(0.00700331 -1.74219e-05 -0.0016922 0.00700304 -3.57368e-06 0.00700465)
(0.00739606 -1.62226e-05 -0.00180556 0.0073958 -4.28168e-06 0.00739754)
(0.00777967 -1.50889e-05 -0.00191724 0.00777943 -4.98732e-06 0.00778129)
(0.00815428 -1.40239e-05 -0.00202721 0.00815406 -5.68178e-06 0.00815605)
(0.00852036 -1.30255e-05 -0.00213546 0.00852016 -6.35919e-06 0.00852228)
(0.0088781 -1.20906e-05 -0.00224199 0.00887792 -7.0161e-06 0.00888019)
(0.00922777 -1.12169e-05 -0.00234676 0.00922761 -7.65062e-06 0.00923003)
(0.00956964 -1.03986e-05 -0.00244978 0.00956949 -8.26195e-06 0.00957207)
(0.00990377 -9.63197e-06 -0.00255102 0.00990364 -8.84981e-06 0.00990639)
(0.0102303 -8.9138e-06 -0.00265043 0.0102302 -9.41377e-06 0.0102331)
(0.0105492 -8.24026e-06 -0.00274799 0.0105491 -9.95326e-06 0.0105522)
(0.0108604 -7.60785e-06 -0.00284359 0.0108603 -1.04666e-05 0.0108636)
(0.0111638 -7.01324e-06 -0.00293719 0.0111638 -1.09514e-05 0.0111672)
(0.0114594 -6.45424e-06 -0.00302868 0.0114593 -1.14039e-05 0.0114629)
(0.0117467 -5.92818e-06 -0.00311797 0.0117466 -1.18188e-05 0.0117505)
(0.0120257 -5.43283e-06 -0.00320488 0.0120257 -1.21891e-05 0.0120296)
(0.0122959 -4.9666e-06 -0.00328937 0.0122959 -1.25064e-05 0.0123)
(0.0125571 -4.52698e-06 -0.00337126 0.0125571 -1.27601e-05 0.0125614)
(0.0128088 -4.11281e-06 -0.00345037 0.0128088 -1.29379e-05 0.0128133)
(0.0130506 -3.72253e-06 -0.00352657 0.0130506 -1.30262e-05 0.0130553)
(0.013282 -3.35463e-06 -0.00359962 0.0132821 -1.30103e-05 0.0132869)
(0.0135026 -3.00802e-06 -0.00366939 0.0135026 -1.28742e-05 0.0135076)
(0.0137116 -2.6814e-06 -0.00373565 0.0137116 -1.26019e-05 0.0137168)
(0.0139085 -2.37363e-06 -0.00379814 0.0139085 -1.21782e-05 0.0139138)
(0.0140925 -2.08329e-06 -0.00385671 0.0140926 -1.15904e-05 0.014098)
(0.0142631 -1.8086e-06 -0.00391102 0.0142632 -1.0829e-05 0.0142687)
(0.0144191 -1.54782e-06 -0.00396075 0.0144192 -9.88927e-06 0.0144249)
(0.0145595 -1.29899e-06 -0.00400559 0.0145596 -8.77288e-06 0.0145654)
(0.014683 -1.05923e-06 -0.00404507 0.0146831 -7.48606e-06 0.014689)
(0.0147879 -8.2589e-07 -0.00407859 0.014788 -6.04045e-06 0.0147939)
(0.0148719 -5.96964e-07 -0.00410549 0.014872 -4.44775e-06 0.014878)
(0.0149326 -3.70278e-07 -0.00412492 0.0149327 -2.7261e-06 0.0149388)
(0.0149668 -1.28574e-07 -0.00413591 0.0149669 -9.1831e-07 0.014973)
(0.00092472 -8.69117e-05 -2.74108e-05 0.000924717 -4.97734e-10 0.000924723)
(0.000835695 -7.0687e-05 -7.0687e-05 0.000835693 -1.0797e-08 0.000835693)
(0.000854095 -6.44273e-05 -0.000111618 0.000854108 -1.70706e-08 0.000854077)
(0.000950769 -6.08024e-05 -0.000154727 0.000950803 -2.02715e-08 0.000950729)
(0.00110629 -5.92348e-05 -0.000204012 0.00110635 -1.81607e-08 0.00110622)
(0.0013053 -5.87378e-05 -0.00026101 0.00130538 -9.70679e-09 0.00130522)
(0.0015353 -5.84818e-05 -0.000325359 0.00153537 -9.60231e-10 0.00153521)
(0.00178627 -5.79593e-05 -0.00039584 0.0017863 -6.86946e-09 0.00178622)
(0.00205038 -5.69384e-05 -0.000471015 0.00205033 -4.70425e-08 0.00205041)
(0.00232163 -5.53667e-05 -0.000549501 0.00232147 -1.38936e-07 0.00232176)
(0.00259547 -5.33007e-05 -0.000630085 0.0025952 -2.9357e-07 0.0025957)
(0.00286854 -5.085e-05 -0.000711755 0.00286817 -5.14378e-07 0.00286887)
(0.00313848 -4.81393e-05 -0.000793707 0.00313801 -7.98071e-07 0.00313887)
(0.00340364 -4.52889e-05 -0.000875337 0.00340311 -1.13651e-06 0.00340407)
(0.00366304 -4.23989e-05 -0.000956216 0.00366248 -1.5188e-06 0.00366348)
(0.00391616 -3.95478e-05 -0.00103605 0.00391559 -1.93313e-06 0.00391659)
(0.00416282 -3.67914e-05 -0.00111465 0.00416226 -2.36813e-06 0.0041632)
(0.00440308 -3.41645e-05 -0.00119195 0.00440255 -2.8138e-06 0.00440339)
(0.00463712 -3.16861e-05 -0.0012679 0.00463663 -3.26191e-06 0.00463736)
(0.00486525 -2.93631e-05 -0.0013425 0.0048648 -3.7061e-06 0.00486541)
(0.00508777 -2.71957e-05 -0.00141578 0.00508735 -4.1418e-06 0.00508782)
(0.00530497 -2.51779e-05 -0.00148777 0.00530459 -4.56601e-06 0.00530492)
(0.00551713 -2.33007e-05 -0.00155849 0.00551679 -4.97678e-06 0.00551698)
(0.00572448 -2.15547e-05 -0.00162799 0.00572417 -5.37317e-06 0.00572423)
(0.00592722 -1.99292e-05 -0.00169626 0.00592695 -5.75469e-06 0.00592686)
(0.00612548 -1.84148e-05 -0.00176336 0.00612524 -6.12118e-06 0.00612502)
(0.00631937 -1.70022e-05 -0.00182922 0.00631916 -6.47224e-06 0.00631879)
(0.00650894 -1.5683e-05 -0.00189385 0.00650875 -6.80742e-06 0.00650824)
(0.0066942 -1.44498e-05 -0.00195724 0.00669403 -7.12577e-06 0.00669338)
(0.0068751 -1.32956e-05 -0.00201933 0.00687495 -7.4257e-06 0.00687415)
(0.0070516 -1.22149e-05 -0.00208008 0.00705147 -7.70488e-06 0.00705053)
(0.0072235 -1.11997e-05 -0.00213943 0.0072234 -7.95986e-06 0.0072223)
(0.00739081 -1.02483e-05 -0.00219733 0.00739072 -8.18644e-06 0.00738947)
(0.00755318 -9.35725e-06 -0.00225364 0.00755312 -8.37904e-06 0.0075517)
(0.00771055 -8.51659e-06 -0.00230832 0.00771051 -8.53107e-06 0.00770894)
(0.00786252 -7.72876e-06 -0.00236124 0.00786251 -8.63455e-06 0.00786077)
(0.00800896 -6.98775e-06 -0.00241231 0.00800898 -8.68074e-06 0.00800706)
(0.0081494 -6.28925e-06 -0.00246138 0.00814944 -8.65998e-06 0.00814736)
(0.00828364 -5.63594e-06 -0.00250833 0.00828371 -8.56186e-06 0.00828145)
(0.00841115 -5.01871e-06 -0.002553 0.00841124 -8.37578e-06 0.00840881)
(0.00853159 -4.43969e-06 -0.00259523 0.0085317 -8.09157e-06 0.00852911)
(0.00864449 -3.89486e-06 -0.00263487 0.00864463 -7.70059e-06 0.00864188)
(0.00874926 -3.37824e-06 -0.00267167 0.00874942 -7.19601e-06 0.00874652)
(0.00884536 -2.88996e-06 -0.00270546 0.00884554 -6.57432e-06 0.00884251)
(0.00893199 -2.42424e-06 -0.00273596 0.00893218 -5.83567e-06 0.00892903)
(0.00900835 -1.9766e-06 -0.00276284 0.00900856 -4.98357e-06 0.0090053)
(0.00907317 -1.53993e-06 -0.0027857 0.00907339 -4.02505e-06 0.00907004)
(0.00912525 -1.11311e-06 -0.00280405 0.00912548 -2.96773e-06 0.00912207)
(0.0091628 -6.91741e-07 -0.00281731 0.00916303 -1.82356e-06 0.00915957)
(0.00918387 -2.40339e-07 -0.00282475 0.0091841 -6.15998e-07 0.00918063)
(0.00106473 -0.000137826 -2.54527e-05 0.00106472 3.70706e-09 0.00106474)
(0.000854095 -0.000111618 -6.44273e-05 0.000854077 -1.70706e-08 0.000854108)
(0.000786393 -0.000103234 -0.000103234 0.000786394 -3.11121e-08 0.000786394)
(0.000814586 -9.82641e-05 -0.000144888 0.000814606 -4.15761e-08 0.000814568)
(0.000909625 -9.57054e-05 -0.000192103 0.000909667 -4.67949e-08 0.000909588)
(0.00105201 -9.47209e-05 -0.000246969 0.00105206 -4.80352e-08 0.00105197)
(0.00122772 -9.42782e-05 -0.000309781 0.00122775 -5.61585e-08 0.00122771)
(0.00142628 -9.35705e-05 -0.000379542 0.00142623 -9.06067e-08 0.00142635)
(0.00163969 -9.21483e-05 -0.000454724 0.00163952 -1.715e-07 0.0016399)
(0.00186185 -8.98599e-05 -0.000533751 0.00186153 -3.1148e-07 0.00186222)
(0.0020882 -8.67515e-05 -0.000615208 0.00208771 -5.13535e-07 0.00208872)
(0.00231531 -8.29767e-05 -0.000697926 0.00231468 -7.73139e-07 0.00231597)
(0.00254082 -7.87314e-05 -0.000780982 0.00254006 -1.08151e-06 0.00254157)
(0.00276309 -7.42124e-05 -0.000863724 0.00276225 -1.42835e-06 0.00276388)
(0.00298115 -6.95889e-05 -0.000945683 0.00298027 -1.80367e-06 0.00298194)
(0.00319449 -6.4993e-05 -0.00102658 0.0031936 -2.19844e-06 0.00319523)
(0.00340293 -6.05269e-05 -0.00110625 0.00340206 -2.605e-06 0.00340358)
(0.00360652 -5.6254e-05 -0.00118462 0.0036057 -3.017e-06 0.00360706)
(0.00380547 -5.22038e-05 -0.00126168 0.0038047 -3.4293e-06 0.00380587)
(0.00400002 -4.84008e-05 -0.00133747 0.00399931 -3.83788e-06 0.00400027)
(0.00419046 -4.4845e-05 -0.00141204 0.00418981 -4.23977e-06 0.00419055)
(0.00437707 -4.15293e-05 -0.00148547 0.00437648 -4.63284e-06 0.004377)
(0.0045601 -3.84443e-05 -0.00155775 0.00455957 -5.01557e-06 0.00455987)
(0.00473977 -3.55698e-05 -0.00162898 0.00473929 -5.38703e-06 0.00473936)
(0.00491623 -3.2894e-05 -0.00169917 0.0049158 -5.74663e-06 0.00491566)
(0.00508963 -3.0401e-05 -0.00176835 0.00508924 -6.09388e-06 0.00508889)
(0.00526002 -2.80746e-05 -0.0018365 0.00525968 -6.42823e-06 0.00525911)
(0.00542746 -2.59002e-05 -0.00190362 0.00542716 -6.74891e-06 0.00542638)
(0.00559193 -2.38677e-05 -0.00196972 0.00559167 -7.05487e-06 0.00559068)
(0.00575339 -2.19638e-05 -0.00203472 0.00575316 -7.34436e-06 0.00575196)
(0.00591175 -2.01821e-05 -0.00209858 0.00591156 -7.61495e-06 0.00591015)
(0.0060669 -1.85143e-05 -0.00216123 0.00606673 -7.86339e-06 0.00606511)
(0.00621865 -1.69437e-05 -0.00222263 0.00621852 -8.08542e-06 0.00621669)
(0.00636681 -1.54687e-05 -0.00228262 0.00636671 -8.27559e-06 0.00636466)
(0.00651113 -1.40853e-05 -0.00234111 0.00651107 -8.4274e-06 0.0065088)
(0.00665132 -1.27869e-05 -0.00239802 0.00665131 -8.53314e-06 0.00664881)
(0.00678709 -1.15631e-05 -0.00245313 0.00678712 -8.58392e-06 0.00678439)
(0.00691807 -1.04109e-05 -0.00250638 0.00691814 -8.57002e-06 0.00691519)
(0.00704379 -9.32981e-06 -0.00255753 0.0070439 -8.48096e-06 0.00704072)
(0.0071639 -8.31296e-06 -0.00260641 0.00716405 -8.30587e-06 0.00716065)
(0.00727787 -7.35467e-06 -0.00265282 0.00727807 -8.03429e-06 0.00727446)
(0.00738518 -6.45126e-06 -0.00269652 0.00738542 -7.65678e-06 0.0073816)
(0.00748522 -5.59992e-06 -0.00273727 0.0074855 -7.16597e-06 0.00748148)
(0.00757726 -4.79197e-06 -0.0027748 0.00757757 -6.55749e-06 0.00757338)
(0.00766049 -4.02168e-06 -0.00280875 0.00766083 -5.83043e-06 0.00765648)
(0.00773405 -3.27929e-06 -0.00283876 0.00773441 -4.98755e-06 0.00772994)
(0.00779668 -2.55695e-06 -0.00286432 0.00779705 -4.03513e-06 0.00779247)
(0.00784703 -1.84905e-06 -0.00288491 0.00784741 -2.98088e-06 0.00784275)
(0.00788345 -1.14819e-06 -0.00289972 0.00788383 -1.83646e-06 0.00787912)
(0.00790365 -3.9948e-07 -0.00290802 0.00790403 -6.2189e-07 0.00789932)
(0.00128247 -0.000196625 -2.52179e-05 0.00128245 1.70511e-08 0.0012825)
(0.000950769 -0.000154727 -6.08024e-05 0.000950729 -2.02715e-08 0.000950803)
(0.000814586 -0.000144888 -9.82641e-05 0.000814568 -4.15761e-08 0.000814606)
(0.00080576 -0.000144111 -0.000144111 0.00080576 -5.54568e-08 0.00080576)
(0.000882754 -0.000147066 -0.00020023 0.000882767 -5.81056e-08 0.000882739)
(0.00101916 -0.000151066 -0.00026715 0.00101916 -4.87206e-08 0.00101916)
(0.00119719 -0.000154602 -0.000344505 0.00119712 -4.76796e-08 0.00119724)
(0.00140408 -0.000156693 -0.000430889 0.00140387 -9.24431e-08 0.00140425)
(0.00163025 -0.000156829 -0.000524296 0.00162982 -2.15228e-07 0.00163059)
(0.00186839 -0.000154903 -0.000622615 0.00186771 -4.27776e-07 0.00186892)
(0.00211294 -0.000151098 -0.000723968 0.00211201 -7.22929e-07 0.00211365)
(0.00235978 -0.000145745 -0.000826764 0.00235861 -1.08321e-06 0.00236061)
(0.00260595 -0.000139258 -0.000929844 0.0026046 -1.48884e-06 0.00260684)
(0.00284946 -0.000132031 -0.00103235 0.00284799 -1.92266e-06 0.00285033)
(0.00308908 -0.000124403 -0.00113369 0.00308755 -2.37215e-06 0.00308986)
(0.00332414 -0.000116662 -0.00123355 0.00332261 -2.82911e-06 0.00332477)
(0.00355438 -0.000109004 -0.00133178 0.00355289 -3.28853e-06 0.00355481)
(0.00377983 -0.000101576 -0.00142831 0.0037784 -3.74725e-06 0.00378001)
(0.00400066 -9.44728e-05 -0.00152315 0.00399932 -4.20306e-06 0.00400058)
(0.00421713 -8.77467e-05 -0.0016164 0.0042159 -4.65433e-06 0.00421679)
(0.00442957 -8.14221e-05 -0.00170813 0.00442844 -5.09951e-06 0.00442895)
(0.00463826 -7.54843e-05 -0.00179843 0.00463724 -5.53722e-06 0.00463736)
(0.00484347 -6.99343e-05 -0.00188739 0.00484254 -5.9663e-06 0.0048423)
(0.00504541 -6.47499e-05 -0.00197508 0.00504458 -6.38558e-06 0.00504399)
(0.00524427 -5.99047e-05 -0.00206153 0.00524352 -6.7941e-06 0.0052426)
(0.00544019 -5.53788e-05 -0.00214681 0.00543951 -7.19086e-06 0.00543828)
(0.00563322 -5.11491e-05 -0.00223091 0.00563262 -7.57482e-06 0.0056311)
(0.0058234 -4.71999e-05 -0.00231384 0.00582287 -7.94475e-06 0.00582107)
(0.00601072 -4.34953e-05 -0.00239558 0.00601025 -8.29882e-06 0.00600818)
(0.00619509 -4.00215e-05 -0.00247608 0.00619469 -8.635e-06 0.00619236)
(0.00637641 -3.67675e-05 -0.00255529 0.00637606 -8.95008e-06 0.00637349)
(0.00655451 -3.37198e-05 -0.00263313 0.00655423 -9.24034e-06 0.0065514)
(0.00672917 -3.08572e-05 -0.00270948 0.00672895 -9.5007e-06 0.00672589)
(0.00690014 -2.81644e-05 -0.00278423 0.00689998 -9.72478e-06 0.00689668)
(0.0070671 -2.56339e-05 -0.00285725 0.00706701 -9.90514e-06 0.00706348)
(0.00722974 -2.32556e-05 -0.00292838 0.00722971 -1.00325e-05 0.00722595)
(0.00738757 -2.10228e-05 -0.00299738 0.00738762 -1.00968e-05 0.00738362)
(0.00754026 -1.89234e-05 -0.00306415 0.00754039 -1.00863e-05 0.00753615)
(0.00768715 -1.69489e-05 -0.0031284 0.00768736 -9.98844e-06 0.00768289)
(0.00782771 -1.50921e-05 -0.00318988 0.00782799 -9.79033e-06 0.0078233)
(0.00796139 -1.33484e-05 -0.00324834 0.00796176 -9.47952e-06 0.00795685)
(0.00808748 -1.17071e-05 -0.00330347 0.00808792 -9.04395e-06 0.00808281)
(0.00820516 -1.01562e-05 -0.00335495 0.00820567 -8.4745e-06 0.00820037)
(0.00831364 -8.68637e-06 -0.00340239 0.00831421 -7.76506e-06 0.00830875)
(0.00841192 -7.28713e-06 -0.00344535 0.00841254 -6.91361e-06 0.00840694)
(0.0084988 -5.94216e-06 -0.00348333 0.00849946 -5.92259e-06 0.00849374)
(0.00857287 -4.6324e-06 -0.00351574 0.00857356 -4.79874e-06 0.00856776)
(0.00863248 -3.34907e-06 -0.00354178 0.00863319 -3.55106e-06 0.00862733)
(0.00867548 -2.08289e-06 -0.00356061 0.00867619 -2.19303e-06 0.00867032)
(0.00869935 -7.27033e-07 -0.00357108 0.00870005 -7.44259e-07 0.0086942)
(0.0015675 -0.000266228 -2.57658e-05 0.00156747 4.69942e-08 0.00156755)
(0.00110629 -0.000204012 -5.92348e-05 0.00110622 -1.81607e-08 0.00110635)
(0.000909625 -0.000192103 -9.57054e-05 0.000909588 -4.67949e-08 0.000909667)
(0.000882754 -0.00020023 -0.000147066 0.000882739 -5.81056e-08 0.000882767)
(0.000968371 -0.000217721 -0.000217721 0.000968364 -4.32473e-08 0.000968364)
(0.00113006 -0.000236435 -0.000306583 0.00113001 1.34446e-08 0.00113009)
(0.00134373 -0.000252158 -0.000410703 0.00134351 8.81654e-08 0.00134388)
(0.00159259 -0.000263108 -0.000526725 0.00159208 1.08049e-07 0.00159297)
(0.00186442 -0.000268783 -0.00065128 0.0018635 5.10577e-09 0.00186511)
(0.00215008 -0.00026944 -0.000781242 0.00214872 -2.41956e-07 0.00215111)
(0.00244281 -0.000265712 -0.00091404 0.00244102 -6.14332e-07 0.00244415)
(0.00273764 -0.000258445 -0.00104763 0.00273549 -1.07536e-06 0.00273923)
(0.00303109 -0.000248569 -0.00118055 0.00302868 -1.58754e-06 0.00303285)
(0.00332088 -0.000236864 -0.00131179 0.00331829 -2.12179e-06 0.00332271)
(0.00360559 -0.000224062 -0.00144076 0.00360293 -2.66001e-06 0.00360742)
(0.00388452 -0.000210764 -0.00156712 0.00388186 -3.19364e-06 0.00388626)
(0.00415741 -0.00019738 -0.00169077 0.00415482 -3.72027e-06 0.00415901)
(0.00442433 -0.000184234 -0.00181177 0.00442185 -4.24071e-06 0.00442574)
(0.00468553 -0.000171528 -0.00193018 0.00468321 -4.75657e-06 0.00468674)
(0.00494135 -0.000159396 -0.00204617 0.0049392 -5.26914e-06 0.00494236)
(0.00519219 -0.000147908 -0.00215986 0.00519022 -5.77877e-06 0.00519301)
(0.00543841 -0.000137087 -0.00227146 0.00543661 -6.28497e-06 0.00543904)
(0.00568034 -0.000126942 -0.00238113 0.00567871 -6.78647e-06 0.00568082)
(0.00591826 -0.000117427 -0.0024889 0.00591679 -7.28164e-06 0.00591861)
(0.0061524 -0.000108525 -0.00259497 0.00615108 -7.76857e-06 0.00615265)
(0.00638292 -0.000100215 -0.00269934 0.00638174 -8.24509e-06 0.0063831)
(0.00660994 -9.24338e-05 -0.0028021 0.00660888 -8.70937e-06 0.00661006)
(0.00683348 -8.51624e-05 -0.00290323 0.00683254 -9.15848e-06 0.00683358)
(0.00705358 -7.83607e-05 -0.00300272 0.00705275 -9.59033e-06 0.00705367)
(0.00727007 -7.19889e-05 -0.0031006 0.00726936 -1.00012e-05 0.00727017)
(0.00748296 -6.60286e-05 -0.00319677 0.00748235 -1.03876e-05 0.00748308)
(0.00769198 -6.04425e-05 -0.00329117 0.00769148 -1.07441e-05 0.00769214)
(0.00789693 -5.52029e-05 -0.00338364 0.00789654 -1.10656e-05 0.00789713)
(0.00809754 -5.02976e-05 -0.00347411 0.00809727 -1.13438e-05 0.00809779)
(0.00829335 -4.57012e-05 -0.00356237 0.0082932 -1.15705e-05 0.00829365)
(0.00848403 -4.13801e-05 -0.00364831 0.008484 -1.17347e-05 0.00848437)
(0.0086691 -3.73345e-05 -0.00373164 0.0086692 -1.18246e-05 0.00866949)
(0.00884798 -3.35474e-05 -0.00381217 0.00884821 -1.18263e-05 0.00884841)
(0.00902018 -2.99938e-05 -0.00388965 0.00902056 -1.17253e-05 0.00902066)
(0.00918493 -2.66639e-05 -0.00396374 0.00918544 -1.15063e-05 0.00918543)
(0.0093416 -2.35405e-05 -0.00403417 0.00934226 -1.11543e-05 0.00934214)
(0.00948928 -2.0612e-05 -0.00410054 0.00949007 -1.06547e-05 0.00948985)
(0.00962716 -1.78557e-05 -0.00416248 0.00962807 -9.9965e-06 0.00962777)
(0.00975418 -1.52518e-05 -0.00421952 0.0097552 -9.17146e-06 0.00975483)
(0.00986926 -1.27792e-05 -0.0042712 0.00987038 -8.17655e-06 0.00986996)
(0.00997095 -1.04071e-05 -0.00431682 0.00997214 -7.01387e-06 0.00997171)
(0.0100577 -8.1091e-06 -0.00435576 0.010059 -5.69073e-06 0.0100585)
(0.0101274 -5.86279e-06 -0.00438706 0.0101287 -4.21785e-06 0.0101283)
(0.0101777 -3.65044e-06 -0.00440965 0.010179 -2.61061e-06 0.0101787)
(0.0102057 -1.2751e-06 -0.0044222 0.0102069 -8.87786e-07 0.0102066)
(0.00190658 -0.000346926 -2.65111e-05 0.00190655 9.8919e-08 0.00190664)
(0.0013053 -0.00026101 -5.87378e-05 0.00130522 -9.70679e-09 0.00130538)
(0.00105201 -0.000246969 -9.47209e-05 0.00105197 -4.80352e-08 0.00105206)
(0.00101916 -0.00026715 -0.000151066 0.00101916 -4.87206e-08 0.00101916)
(0.00113006 -0.000306583 -0.000236435 0.00113009 1.34446e-08 0.00113001)
(0.00133515 -0.000349852 -0.000349852 0.00133513 1.93034e-07 0.00133513)
(0.0016016 -0.000387412 -0.000485337 0.00160133 4.84386e-07 0.00160183)
(0.00190725 -0.000415256 -0.000636316 0.00190644 7.68264e-07 0.00190799)
(0.00223668 -0.000432441 -0.000797087 0.00223514 9.0531e-07 0.0022381)
(0.00257898 -0.000439631 -0.000963086 0.00257668 8.34997e-07 0.00258118)
(0.00292646 -0.000438226 -0.00113074 0.00292345 5.71452e-07 0.00292941)
(0.00327375 -0.000429836 -0.00129761 0.00327016 1.63429e-07 0.00327735)
(0.00361724 -0.000416142 -0.00146201 0.00361323 -3.34729e-07 0.00362139)
(0.00395469 -0.000398674 -0.00162284 0.00395042 -8.79018e-07 0.00395927)
(0.00428481 -0.00037872 -0.00177966 0.00428043 -1.44152e-06 0.00428972)
(0.00460706 -0.000357365 -0.00193215 0.00460269 -2.00885e-06 0.00461217)
(0.00492135 -0.00033547 -0.0020804 0.00491709 -2.57778e-06 0.00492659)
(0.00522791 -0.000313604 -0.00222458 0.00522383 -3.1502e-06 0.0052332)
(0.00552714 -0.000292213 -0.00236491 0.0055233 -3.72949e-06 0.00553246)
(0.00581955 -0.000271593 -0.00250169 0.00581598 -4.31817e-06 0.00582487)
(0.00610564 -0.000251939 -0.00263515 0.00610235 -4.91695e-06 0.00611094)
(0.00638589 -0.000233346 -0.00276563 0.00638288 -5.5247e-06 0.00639117)
(0.00666073 -0.000215803 -0.00289329 0.00665799 -6.13872e-06 0.00666602)
(0.00693053 -0.000199337 -0.00301832 0.00692805 -6.75533e-06 0.00693583)
(0.00719556 -0.00018392 -0.00314098 0.00719333 -7.37035e-06 0.0072009)
(0.00745614 -0.00016948 -0.00326126 0.00745414 -7.97901e-06 0.00746153)
(0.00771231 -0.000155993 -0.00337935 0.00771052 -8.57702e-06 0.00771777)
(0.00796428 -0.000143399 -0.00349531 0.0079627 -9.15976e-06 0.00796983)
(0.00821198 -0.000131632 -0.00360909 0.00821059 -9.72311e-06 0.00821763)
(0.00845535 -0.000120631 -0.00372076 0.00845415 -1.02615e-05 0.00846111)
(0.00869438 -0.000110359 -0.00383025 0.00869336 -1.07702e-05 0.00870025)
(0.00892882 -0.000100765 -0.0039375 0.00892798 -1.1243e-05 0.0089348)
(0.00915845 -9.17985e-05 -0.00404244 0.0091578 -1.1673e-05 0.00916454)
(0.00938296 -8.34197e-05 -0.00414496 0.0093825 -1.20516e-05 0.00938914)
(0.009602 -7.55899e-05 -0.00424479 0.00960174 -1.23689e-05 0.00960827)
(0.00981511 -6.82742e-05 -0.00434183 0.00981505 -1.26135e-05 0.00982144)
(0.0100218 -6.14374e-05 -0.00443589 0.010022 -1.27718e-05 0.0100282)
(0.0102215 -5.50659e-05 -0.00452663 0.0102218 -1.28281e-05 0.0102279)
(0.0104135 -4.91123e-05 -0.00461385 0.0104141 -1.27678e-05 0.01042)
(0.0105972 -4.35488e-05 -0.00469718 0.010598 -1.25725e-05 0.0106036)
(0.0107717 -3.83658e-05 -0.00477629 0.0107728 -1.22258e-05 0.0107782)
(0.0109362 -3.35208e-05 -0.00485084 0.0109374 -1.17117e-05 0.0109426)
(0.0110896 -2.89761e-05 -0.00492031 0.011091 -1.10173e-05 0.011096)
(0.0112309 -2.47047e-05 -0.00498431 0.0112326 -1.01322e-05 0.0112373)
(0.0113588 -2.06641e-05 -0.0050422 0.0113607 -9.05329e-06 0.0113653)
(0.0114719 -1.68081e-05 -0.00509335 0.0114738 -7.78199e-06 0.0114783)
(0.0115682 -1.30834e-05 -0.00513691 0.0115702 -6.32606e-06 0.0115747)
(0.0116456 -9.44816e-06 -0.00517194 0.0116477 -4.69794e-06 0.0116522)
(0.0117015 -5.8852e-06 -0.00519719 0.0117036 -2.91501e-06 0.0117081)
(0.0117323 -2.06038e-06 -0.00521117 0.0117344 -9.93576e-07 0.011739)
(0.0022866 -0.000437719 -2.71121e-05 0.00228658 1.67473e-07 0.00228666)
(0.0015353 -0.000325359 -5.84818e-05 0.00153521 -9.60231e-10 0.00153537)
(0.00122772 -0.000309781 -9.42782e-05 0.00122771 -5.61585e-08 0.00122775)
(0.00119719 -0.000344505 -0.000154602 0.00119724 -4.76797e-08 0.00119712)
(0.00134373 -0.000410703 -0.000252158 0.00134388 8.81654e-08 0.00134351)
(0.0016016 -0.000485337 -0.000387412 0.00160183 4.84386e-07 0.00160133)
(0.00192734 -0.000552201 -0.000552201 0.00192736 1.17384e-06 0.00192736)
(0.00229262 -0.000603934 -0.000736516 0.00229192 1.97289e-06 0.00229344)
(0.00267901 -0.000638745 -0.000931803 0.00267717 2.63878e-06 0.00268104)
(0.00307435 -0.000657462 -0.00113181 0.00307124 3.04728e-06 0.00307776)
(0.00347069 -0.00066215 -0.00133203 0.0034664 3.18808e-06 0.00347545)
(0.00386289 -0.000655335 -0.00152946 0.00385764 3.10264e-06 0.00386885)
(0.00424778 -0.000639461 -0.00172234 0.0042418 2.84733e-06 0.00425472)
(0.00462352 -0.00061679 -0.00190959 0.00461708 2.47424e-06 0.00463122)
(0.00498927 -0.000589333 -0.00209076 0.0049826 2.02137e-06 0.00499753)
(0.00534483 -0.000558804 -0.00226581 0.00533811 1.51113e-06 0.00535345)
(0.00569041 -0.000526589 -0.00243489 0.00568381 9.53662e-07 0.00569924)
(0.00602649 -0.000493726 -0.0025983 0.00602013 3.52134e-07 0.00603542)
(0.00635369 -0.000461015 -0.00275651 0.00634765 -2.93209e-07 0.0063626)
(0.00667267 -0.000429034 -0.00290993 0.00666702 -9.81418e-07 0.00668151)
(0.00698411 -0.000398197 -0.00305893 0.00697887 -1.70978e-06 0.00699282)
(0.00728856 -0.000368744 -0.0032039 0.00728374 -2.47318e-06 0.0072971)
(0.00758655 -0.000340803 -0.00334517 0.00758215 -3.26463e-06 0.0075949)
(0.00787868 -0.000314449 -0.00348306 0.00787469 -4.07588e-06 0.00788683)
(0.00816515 -0.000289665 -0.00361777 0.00816154 -4.89789e-06 0.00817311)
(0.00844643 -0.000266443 -0.00374952 0.00844319 -5.72203e-06 0.00845419)
(0.00872258 -0.000244736 -0.00387846 0.00871968 -6.53949e-06 0.00873014)
(0.0089938 -0.000224447 -0.0040047 0.00899123 -7.34201e-06 0.00900117)
(0.00926016 -0.000205504 -0.00412831 0.0092579 -8.12202e-06 0.00926734)
(0.00952165 -0.000187839 -0.00424934 0.0095197 -8.87227e-06 0.00952865)
(0.00977822 -0.00017138 -0.0043678 0.00977656 -9.5848e-06 0.00978502)
(0.0100297 -0.000156045 -0.00448363 0.0100284 -1.02526e-05 0.0100363)
(0.0102758 -0.00014176 -0.00459673 0.0102748 -1.08666e-05 0.0102822)
(0.0105163 -0.000128449 -0.00470704 0.0105156 -1.14185e-05 0.0105225)
(0.0107508 -0.000116055 -0.00481444 0.0107504 -1.18969e-05 0.0107568)
(0.0109789 -0.000104524 -0.00491865 0.0109788 -1.22903e-05 0.0109846)
(0.0111999 -9.37942e-05 -0.00501953 0.0112001 -1.25831e-05 0.0112053)
(0.0114135 -8.38264e-05 -0.00511682 0.011414 -1.2761e-05 0.0114185)
(0.0116187 -7.45584e-05 -0.00521017 0.0116196 -1.28063e-05 0.0116235)
(0.0118149 -6.59407e-05 -0.0052994 0.0118161 -1.27024e-05 0.0118194)
(0.0120013 -5.79415e-05 -0.00538405 0.0120029 -1.24297e-05 0.0120054)
(0.0121769 -5.05e-05 -0.00546367 0.0121788 -1.19738e-05 0.0121807)
(0.0123407 -4.35614e-05 -0.00553792 0.0123429 -1.13182e-05 0.0123442)
(0.0124915 -3.70688e-05 -0.00560629 0.012494 -1.04535e-05 0.0124948)
(0.012628 -3.09468e-05 -0.00566808 0.0126307 -9.37544e-06 0.0126311)
(0.0127485 -2.51242e-05 -0.00572267 0.0127515 -8.08535e-06 0.0127514)
(0.0128512 -1.95299e-05 -0.0057691 0.0128542 -6.59162e-06 0.012854)
(0.0129337 -1.41004e-05 -0.00580641 0.0129369 -4.90791e-06 0.0129364)
(0.0129933 -8.78496e-06 -0.00583339 0.0129964 -3.05424e-06 0.0129959)
(0.0130261 -3.0756e-06 -0.0058482 0.0130292 -1.04361e-06 0.0130287)
(0.00269592 -0.000537059 -2.73985e-05 0.00269595 2.32082e-07 0.00269597)
(0.00178627 -0.00039584 -5.79593e-05 0.00178622 -6.86956e-09 0.0017863)
(0.00142628 -0.000379542 -9.35705e-05 0.00142635 -9.06067e-08 0.00142623)
(0.00140408 -0.000430889 -0.000156693 0.00140425 -9.2443e-08 0.00140387)
(0.00159259 -0.000526725 -0.000263108 0.00159297 1.08049e-07 0.00159208)
(0.00190725 -0.000636316 -0.000415256 0.00190799 7.68264e-07 0.00190644)
(0.00229262 -0.000736516 -0.000603934 0.00229344 1.97289e-06 0.00229192)
(0.00271421 -0.000816212 -0.000816212 0.00271434 3.43189e-06 0.00271434)
(0.0031511 -0.000872591 -0.00104075 0.00314976 4.76948e-06 0.00315275)
(0.00359076 -0.000906858 -0.00126941 0.00358758 5.8086e-06 0.00359433)
(0.00402577 -0.000921612 -0.0014969 0.00402074 6.53411e-06 0.00403129)
(0.00445175 -0.000920048 -0.00171991 0.0044451 6.98244e-06 0.00445902)
(0.0048664 -0.000905303 -0.0019364 0.00485848 7.19716e-06 0.00487507)
(0.00526864 -0.000880182 -0.00214543 0.00525982 7.21775e-06 0.00527834)
(0.00565822 -0.000847261 -0.0023467 0.00564885 7.07575e-06 0.00566859)
(0.00603541 -0.000808759 -0.00254014 0.0060258 6.79331e-06 0.00604614)
(0.0064008 -0.000766585 -0.00272611 0.00639121 6.38418e-06 0.00641164)
(0.00675521 -0.000722295 -0.00290501 0.00674584 5.85681e-06 0.00676595)
(0.00709937 -0.000677162 -0.00307736 0.00709038 5.21787e-06 0.00710986)
(0.0074342 -0.000632122 -0.00324366 0.00742569 4.47447e-06 0.00744432)
(0.0077605 -0.000587955 -0.00340451 0.00775254 3.63618e-06 0.00777017)
(0.00807894 -0.000545226 -0.00356028 0.00807156 2.71509e-06 0.0080881)
(0.00839026 -0.000504214 -0.00371151 0.00838348 1.72557e-06 0.00839887)
(0.00869491 -0.000465184 -0.0038585 0.00868873 6.83413e-07 0.00870296)
(0.00899345 -0.00042827 -0.00400157 0.00898783 -3.95043e-07 0.00900092)
(0.00928612 -0.000393479 -0.00414115 0.00928106 -1.49439e-06 0.00929302)
(0.00957327 -0.000360843 -0.0042773 0.00956874 -2.59918e-06 0.0095796)
(0.00985515 -0.000330308 -0.00441018 0.00985113 -3.69535e-06 0.00986092)
(0.0101318 -0.000301792 -0.00454005 0.0101282 -4.7695e-06 0.010137)
(0.0104032 -0.000275197 -0.00466694 0.0104001 -5.81117e-06 0.0104079)
(0.0106694 -0.00025044 -0.00479084 0.0106668 -6.80932e-06 0.0106736)
(0.0109303 -0.000227406 -0.00491185 0.0109281 -7.75234e-06 0.0109338)
(0.0111856 -0.000205999 -0.00502988 0.0111838 -8.63098e-06 0.0111886)
(0.011435 -0.00018614 -0.0051448 0.0114337 -9.43399e-06 0.0114375)
(0.0116782 -0.000167695 -0.00525654 0.0116774 -1.01492e-05 0.0116801)
(0.0119148 -0.000150588 -0.00536494 0.0119145 -1.07652e-05 0.0119161)
(0.012144 -0.000134742 -0.00546983 0.0121442 -1.12661e-05 0.0121448)
(0.0123655 -0.000120072 -0.00557085 0.0123662 -1.1637e-05 0.0123657)
(0.0125784 -0.0001065 -0.00566782 0.0125796 -1.18597e-05 0.012578)
(0.0127821 -9.39412e-05 -0.0057604 0.0127837 -1.19182e-05 0.012781)
(0.0129755 -8.23191e-05 -0.00584824 0.0129777 -1.17923e-05 0.0129738)
(0.0131578 -7.15651e-05 -0.00593087 0.0131604 -1.14677e-05 0.0131556)
(0.0133278 -6.1593e-05 -0.00600794 0.0133309 -1.09274e-05 0.0133251)
(0.0134843 -5.22931e-05 -0.00607873 0.0134878 -1.01623e-05 0.0134811)
(0.013626 -4.35711e-05 -0.00614277 0.0136298 -9.16771e-06 0.0136224)
(0.0137511 -3.53199e-05 -0.00619934 0.0137552 -7.94531e-06 0.0137471)
(0.0138577 -2.7414e-05 -0.0062475 0.013862 -6.50445e-06 0.0138535)
(0.0139433 -1.97743e-05 -0.00628612 0.0139477 -4.85999e-06 0.013939)
(0.014005 -1.23213e-05 -0.00631395 0.0140094 -3.03431e-06 0.0140006)
(0.0140389 -4.3155e-06 -0.00632933 0.0140434 -1.03929e-06 0.0140345)
(0.00312481 -0.000643254 -2.73124e-05 0.00312493 2.60541e-07 0.00312482)
(0.00205038 -0.000471015 -5.69384e-05 0.00205041 -4.70425e-08 0.00205033)
(0.00163969 -0.000454724 -9.21483e-05 0.0016399 -1.715e-07 0.00163952)
(0.00163025 -0.000524296 -0.000156829 0.00163059 -2.15228e-07 0.00162982)