/*--------------------------------*- C++ -*----------------------------------*\
| =========                 |                                                 |
| \\      /  F ield         | OpenFOAM: The Open Source CFD Toolbox           |
|  \\    /   O peration     | Version:  v1912                                 |
|   \\  /    A nd           | Website:  www.openfoam.com                      |
|    \\/     M anipulation  |                                                 |
\*---------------------------------------------------------------------------*/
FoamFile
{
    version     2.0;
    format      ascii;
    class       volScalarField;
    location    "1000";
    object      turbulenceProperties:k;
}
// * * * * * * * * * * * * * * * * * * * * * * * * * * * * * * * * * * * * * //

dimensions      [0 2 -2 0 0 0 0];


internalField   nonuniform List<scalar> 
2500
(
0.0012967
0.00138708
0.0015971
0.00192371
0.00235126
0.00285988
0.00342992
0.00404392
0.00468728
0.00534815
0.00601711
0.00668684
0.0073518
0.008008
0.00865275
0.00928438
0.00990205
0.0105055
0.0110947
0.0116702
0.0122322
0.0127814
0.0133181
0.0138427
0.0143556
0.0148569
0.0153468
0.0158252
0.0162921
0.0167474
0.0171908
0.0176219
0.0180405
0.0184459
0.0188378
0.0192155
0.0195783
0.0199255
0.0202564
0.02057
0.0208654
0.0211416
0.0213975
0.0216316
0.0218423
0.0220276
0.0221849
0.0223109
0.022402
0.0224533
0.00138708
0.00125354
0.00128114
0.00142615
0.00165943
0.00195795
0.00230294
0.00267939
0.00307556
0.00348243
0.00389318
0.00430279
0.00470768
0.00510541
0.0054945
0.00587417
0.00624414
0.00660451
0.00695556
0.00729773
0.00763147
0.00795724
0.00827545
0.00858644
0.00889051
0.00918787
0.00947866
0.00976297
0.0100408
0.0103121
0.0105768
0.0108346
0.0110855
0.011329
0.011565
0.0117929
0.0120125
0.0122231
0.0124244
0.0126156
0.0127962
0.0129655
0.0131226
0.0132667
0.0133966
0.0135111
0.0136083
0.0136864
0.0137427
0.0137743
0.0015971
0.00128114
0.00117959
0.00122188
0.00136444
0.00157802
0.00184159
0.00213943
0.00245955
0.0027928
0.00313231
0.00347298
0.00381122
0.00414461
0.00447168
0.00479166
0.00510429
0.00540964
0.00570802
0.0059998
0.00628541
0.00656528
0.00683977
0.00710921
0.00737385
0.00763388
0.00788941
0.0081405
0.00838714
0.00862926
0.00886673
0.00909937
0.00932693
0.00954909
0.0097655
0.00997572
0.0101793
0.0103757
0.0105642
0.0107443
0.0109152
0.0110761
0.0112261
0.0113641
0.0114889
0.0115992
0.0116931
0.0117686
0.0118232
0.0118535
0.00192371
0.00142615
0.00122188
0.00120864
0.00132413
0.00152874
0.00179578
0.0021061
0.00244533
0.00280251
0.0031693
0.0035395
0.0039087
0.00427389
0.00463325
0.00498576
0.00533104
0.00566912
0.00600028
0.00632491
0.00664348
0.00695643
0.00726415
0.00756699
0.0078652
0.00815899
0.00844847
0.00873367
0.00901457
0.00929107
0.00956298
0.00983007
0.010092
0.0103484
0.0105988
0.0108427
0.0110794
0.0113084
0.0115287
0.0117395
0.01194
0.0121291
0.0123056
0.0124683
0.0126157
0.012746
0.0128571
0.0129465
0.013011
0.0130468
0.00235126
0.00165943
0.00136444
0.00132413
0.00145255
0.00169508
0.00201556
0.00238882
0.00279651
0.00322496
0.00366399
0.00410618
0.00454631
0.00498094
0.00540797
0.00582632
0.00623562
0.00663596
0.00702774
0.00741146
0.00778771
0.00815703
0.00851993
0.00887683
0.00922806
0.00957388
0.00991444
0.0102498
0.01058
0.0109048
0.0112242
0.0115378
0.0118453
0.0121463
0.0124401
0.0127262
0.0130039
0.0132723
0.0135307
0.0137779
0.014013
0.0142346
0.0144415
0.0146321
0.0148048
0.0149574
0.0150876
0.0151922
0.0152677
0.0153096
0.00285988
0.00195795
0.00157802
0.00152874
0.00169508
0.00200271
0.00240238
0.00286084
0.00335496
0.00386842
0.00438966
0.00491063
0.00542593
0.00593219
0.00642748
0.00691096
0.00738251
0.00784247
0.00829145
0.0087302
0.00915946
0.00957997
0.00999237
0.0103972
0.0107949
0.0111859
0.0115703
0.0119484
0.0123201
0.0126853
0.013044
0.0133958
0.0137404
0.0140773
0.014406
0.0147258
0.015036
0.0153356
0.0156238
0.0158994
0.0161613
0.0164081
0.0166383
0.0168504
0.0170424
0.017212
0.0173566
0.0174727
0.0175566
0.0176029
0.00342992
0.00230294
0.00184159
0.00179578
0.00201556
0.00240238
0.00289103
0.00343899
0.00401861
0.00461167
0.00520627
0.00579469
0.00637215
0.00693591
0.0074847
0.0080182
0.00853673
0.00904102
0.00953197
0.0100106
0.0104779
0.0109347
0.0113818
0.0118201
0.0122499
0.0126719
0.0130862
0.0134931
0.0138927
0.014285
0.0146699
0.0150472
0.0154164
0.0157772
0.016129
0.0164711
0.0168027
0.017123
0.0174309
0.0177252
0.0180048
0.0182682
0.0185139
0.0187401
0.0189449
0.0191257
0.0192797
0.0194035
0.0194928
0.019542
0.00404392
0.00267939
0.00213943
0.0021061
0.00238882
0.00286084
0.00343899
0.00407144
0.00472681
0.00538634
0.0060389
0.00667794
0.00729998
0.0079034
0.00848783
0.00905368
0.00960183
0.0101335
0.0106498
0.0111521
0.0116416
0.0121193
0.0125863
0.0130433
0.0134911
0.0139301
0.0143608
0.0147836
0.0151985
0.0156056
0.0160049
0.0163961
0.016779
0.0171531
0.0175179
0.0178727
0.0182165
0.0185487
0.018868
0.0191734
0.0194635
0.0197369
0.0199919
0.0202266
0.0204391
0.0206267
0.0207866
0.020915
0.0210075
0.0210584
0.00468728
0.00307556
0.00245955
0.00244533
0.00279651
0.00335496
0.00401861
0.00472681
0.0054459
0.00615775
0.00685295
0.0075269
0.00817777
0.00880522
0.00940995
0.00999315
0.0105563
0.011101
0.0116289
0.0121414
0.0126399
0.0131258
0.0136001
0.0140638
0.0145177
0.0149624
0.0153985
0.0158263
0.0162461
0.016658
0.0170621
0.0174581
0.0178459
0.0182249
0.0185947
0.0189546
0.0193037
0.0196412
0.0199658
0.0202765
0.0205719
0.0208503
0.0211102
0.0213495
0.0215661
0.0217575
0.0219206
0.0220515
0.0221458
0.0221976
0.00534815
0.00348243
0.0027928
0.00280251
0.00322496
0.00386842
0.00461167
0.00538634
0.00615775
0.00690959
0.00763491
0.00833138
0.00899896
0.00963879
0.0102525
0.0108421
0.0114096
0.011957
0.0124861
0.0129988
0.0134966
0.0139809
0.0144531
0.0149141
0.015365
0.0158064
0.0162391
0.0166635
0.0170799
0.0174886
0.0178897
0.0182831
0.0186686
0.0190459
0.0194144
0.0197734
0.0201222
0.0204597
0.0207849
0.0210965
0.021393
0.0216729
0.0219344
0.0221754
0.0223937
0.0225866
0.022751
0.0228831
0.0229781
0.0230302
0.00601711
0.00389318
0.00313231
0.0031693
0.00366399
0.00438966
0.00520627
0.0060389
0.00685295
0.00763491
0.0083808
0.00909075
0.00976658
0.0104107
0.0110259
0.0116145
0.0121793
0.0127223
0.0132459
0.0137519
0.0142421
0.0147182
0.0151814
0.015633
0.0160741
0.0165055
0.016928
0.0173422
0.0177487
0.0181477
0.0185395
0.0189241
0.0193014
0.0196711
0.0200329
0.020386
0.0207297
0.0210629
0.0213846
0.0216934
0.0219879
0.0222662
0.0225266
0.022767
0.0229849
0.0231777
0.0233421
0.0234741
0.0235691
0.0236209
0.00668684
0.00430279
0.00347298
0.0035395
0.00410618
0.00491063
0.00579469
0.00667794
0.0075269
0.00833138
0.00909075
0.00980774
0.010486
0.0111292
0.0117409
0.012324
0.0128816
0.0134161
0.0139299
0.014425
0.0149034
0.0153667
0.0158165
0.016254
0.0166805
0.017097
0.0175043
0.0179033
0.0182945
0.0186786
0.0190558
0.0194264
0.0197904
0.0201477
0.0204979
0.0208405
0.0211748
0.0214997
0.0218142
0.0221169
0.0224062
0.0226804
0.0229374
0.0231751
0.0233909
0.023582
0.0237451
0.0238763
0.0239705
0.0240217
0.0073518
0.00470768
0.00381122
0.0039087
0.00454631
0.00542593
0.00637215
0.00729998
0.00817777
0.00899896
0.00976658
0.010486
0.0111627
0.0118016
0.0124067
0.0129816
0.0135295
0.014053
0.0145546
0.0150365
0.0155006
0.0159486
0.0163822
0.0168028
0.0172116
0.0176098
0.0179985
0.0183785
0.0187507
0.0191156
0.019474
0.0198263
0.0201725
0.0205129
0.0208472
0.0211751
0.0214959
0.0218086
0.0221124
0.0224057
0.0226869
0.0229543
0.0232056
0.0234386
0.0236506
0.0238387
0.0239995
0.0241288
0.0242217
0.0242719
0.008008
0.00510541
0.00414461
0.00427389
0.00498094
0.00593219
0.00693591
0.0079034
0.00880522
0.00963879
0.0104107
0.0111292
0.0118016
0.0124336
0.0130303
0.0135953
0.0141321
0.0146435
0.0151319
0.0155994
0.0160481
0.0164796
0.0168957
0.0172978
0.0176872
0.0180651
0.0184329
0.0187914
0.0191416
0.0194845
0.0198208
0.0201511
0.0204759
0.0207955
0.0211099
0.0214191
0.0217225
0.0220194
0.0223088
0.0225894
0.0228595
0.0231173
0.0233606
0.0235869
0.0237934
0.023977
0.0241343
0.0242609
0.0243518
0.0244008
0.00865275
0.0054945
0.00447168
0.00463325
0.00540797
0.00642748
0.0074847
0.00848783
0.00940995
0.0102525
0.0110259
0.0117409
0.0124067
0.0130303
0.013617
0.0141713
0.0146963
0.0151949
0.0156696
0.0161225
0.0165555
0.0169702
0.0173684
0.0177514
0.0181206
0.0184774
0.018823
0.0191586
0.0194852
0.0198039
0.0201156
0.0204213
0.0207216
0.0210172
0.0213083
0.0215951
0.0218775
0.0221548
0.0224263
0.0226908
0.0229467
0.0231921
0.0234248
0.0236421
0.0238413
0.024019
0.0241714
0.0242944
0.0243828
0.0244301
0.00928438
0.00587417
0.00479166
0.00498576
0.00582632
0.00691096
0.0080182
0.00905368
0.00999315
0.0108421
0.0116145
0.012324
0.0129816
0.0135953
0.0141713
0.0147139
0.0152266
0.0157124
0.0161734
0.0166117
0.0170292
0.0174273
0.0178078
0.0181719
0.018521
0.0188565
0.0191796
0.0194916
0.0197936
0.0200869
0.0203726
0.0206517
0.0209253
0.0211942
0.0214591
0.0217204
0.0219783
0.0222326
0.0224827
0.0227277
0.0229661
0.0231961
0.0234154
0.0236214
0.0238111
0.0239811
0.0241275
0.0242458
0.0243308
0.0243761
0.00990205
0.00624414
0.00510429
0.00533104
0.00623562
0.00738251
0.00853673
0.00960183
0.0105563
0.0114096
0.0121793
0.0128816
0.0135295
0.0141321
0.0146963
0.0152266
0.0157268
0.0161995
0.016647
0.017071
0.0174734
0.0178555
0.0182187
0.0185644
0.0188939
0.0192085
0.0195094
0.0197978
0.0200751
0.0203425
0.0206014
0.0208528
0.0210982
0.0213385
0.0215749
0.021808
0.0220385
0.0222665
0.0224919
0.0227139
0.0229314
0.0231428
0.0233459
0.0235379
0.0237159
0.0238763
0.024015
0.0241274
0.0242082
0.0242512
0.0105055
0.00660451
0.00540964
0.00566912
0.00663596
0.00784247
0.00904102
0.0101335
0.011101
0.011957
0.0127223
0.0134161
0.014053
0.0146435
0.0151949
0.0157124
0.0161995
0.016659
0.0170929
0.017503
0.0178907
0.0182574
0.0186042
0.0189323
0.019243
0.0195373
0.0198166
0.0200821
0.020335
0.0205766
0.0208084
0.0210318
0.021248
0.0214586
0.0216648
0.0218677
0.0220683
0.0222673
0.0224647
0.0226605
0.0228539
0.0230433
0.023227
0.0234022
0.0235659
0.0237144
0.0238437
0.0239489
0.0240246
0.0240647
0.0110947
0.00695556
0.00570802
0.00600028
0.00702774
0.00829145
0.00953197
0.0106498
0.0116289
0.0124861
0.0132459
0.0139299
0.0145546
0.0151319
0.0156696
0.0161734
0.016647
0.0170929
0.0175133
0.0179096
0.0182831
0.0186348
0.0189659
0.0192773
0.01957
0.0198451
0.0201038
0.0203471
0.0205763
0.0207928
0.0209979
0.0211932
0.0213801
0.0215603
0.0217353
0.0219066
0.0220754
0.0222429
0.0224098
0.0225763
0.0227422
0.0229064
0.0230674
0.0232227
0.0233693
0.0235037
0.0236215
0.023718
0.0237875
0.0238241
0.0116702
0.00729773
0.0059998
0.00632491
0.00741146
0.0087302
0.0100106
0.0111521
0.0121414
0.0129988
0.0137519
0.014425
0.0150365
0.0155994
0.0161225
0.0166117
0.017071
0.017503
0.0179096
0.0182921
0.0186515
0.0189889
0.0193049
0.0196003
0.019876
0.0201329
0.0203719
0.0205941
0.0208006
0.0209928
0.021172
0.0213397
0.0214976
0.0216474
0.0217907
0.0219295
0.0220652
0.0221996
0.0223336
0.0224682
0.0226036
0.0227394
0.0228744
0.0230066
0.0231332
0.0232506
0.0233548
0.0234406
0.0235027
0.0235352
0.0122322
0.00763147
0.00628541
0.00664348
0.00778771
0.00915946
0.0104779
0.0116416
0.0126399
0.0134966
0.0142421
0.0149034
0.0155006
0.0160481
0.0165555
0.0170292
0.0174734
0.0178907
0.0182831
0.0186515
0.018997
0.0193202
0.0196216
0.0199017
0.0201613
0.0204009
0.0206213
0.0208235
0.0210085
0.0211774
0.0213317
0.0214727
0.0216022
0.0217219
0.0218338
0.0219397
0.0220416
0.0221415
0.022241
0.0223415
0.0224438
0.0225482
0.0226539
0.0227597
0.0228631
0.0229607
0.0230487
0.0231219
0.0231752
0.0232029
0.0127814
0.00795724
0.00656528
0.00695643
0.00815703
0.00957997
0.0109347
0.0121193
0.0131258
0.0139809
0.0147182
0.0153667
0.0159486
0.0164796
0.0169702
0.0174273
0.0178555
0.0182574
0.0186348
0.0189889
0.0193202
0.0196292
0.0199162
0.0201816
0.0204257
0.0206489
0.0208518
0.0210351
0.0211997
0.0213466
0.021477
0.0215925
0.0216945
0.0217849
0.0218657
0.0219389
0.0220068
0.0220716
0.0221354
0.0222001
0.0222671
0.0223374
0.0224109
0.0224871
0.022564
0.0226388
0.0227077
0.0227662
0.022809
0.022831
0.0133181
0.00827545
0.00683977
0.00726415
0.00851993
0.00999237
0.0113818
0.0125863
0.0136001
0.0144531
0.0151814
0.0158165
0.0163822
0.0168957
0.0173684
0.0178078
0.0182187
0.0186042
0.0189659
0.0193049
0.0196216
0.0199162
0.020189
0.0204398
0.0206689
0.0208764
0.0210627
0.0212281
0.0213734
0.0214995
0.0216074
0.0216984
0.0217741
0.0218362
0.0218868
0.0219279
0.0219621
0.0219916
0.022019
0.0220467
0.0220767
0.0221106
0.0221493
0.0221928
0.02224
0.0222888
0.0223359
0.0223771
0.0224077
0.022423
0.0138427
0.00858644
0.00710921
0.00756699
0.00887683
0.0103972
0.0118201
0.0130433
0.0140638
0.0149141
0.015633
0.016254
0.0168028
0.0172978
0.0177514
0.0181719
0.0185644
0.0189323
0.0192773
0.0196003
0.0199017
0.0201816
0.0204398
0.0206762
0.0208906
0.0210828
0.0212531
0.0214016
0.0215287
0.021635
0.0217216
0.0217895
0.0218401
0.0218751
0.0218965
0.0219065
0.0219074
0.021902
0.0218929
0.021883
0.0218749
0.0218707
0.0218722
0.0218802
0.0218947
0.0219144
0.0219366
0.021958
0.0219744
0.0219821
0.0143556
0.00889051
0.00737385
0.0078652
0.00922806
0.0107949
0.0122499
0.0134911
0.0145177
0.015365
0.0160741
0.0166805
0.0172116
0.0176872
0.0181206
0.018521
0.0188939
0.019243
0.01957
0.019876
0.0201613
0.0204257
0.0206689
0.0208906
0.0210902
0.0212675
0.0214222
0.0215544
0.0216642
0.0217519
0.0218183
0.0218644
0.0218912
0.0219004
0.0218939
0.0218737
0.0218423
0.0218026
0.0217573
0.0217097
0.0216627
0.0216192
0.0215817
0.021552
0.021531
0.0215185
0.021513
0.0215119
0.021512
0.0215109
0.0148569
0.00918787
0.00763388
0.00815899
0.00957388
0.0111859
0.0126719
0.0139301
0.0149624
0.0158064
0.0165055
0.017097
0.0176098
0.0180651
0.0184774
0.0188565
0.0192085
0.0195373
0.0198451
0.0201329
0.0204009
0.0206489
0.0208764
0.0210828
0.0212675
0.0214298
0.0215693
0.0216856
0.0217787
0.0218487
0.021896
0.0219213
0.0219256
0.0219104
0.0218772
0.0218281
0.0217656
0.0216925
0.0216117
0.0215265
0.0214406
0.0213571
0.0212793
0.0212101
0.0211512
0.0211038
0.0210676
0.0210414
0.0210233
0.0210121
0.0153468
0.00947866
0.00788941
0.00844847
0.00991444
0.0115703
0.0130862
0.0143608
0.0153985
0.0162391
0.016928
0.0175043
0.0179985
0.0184329
0.018823
0.0191796
0.0195094
0.0198166
0.0201038
0.0203719
0.0206213
0.0208518
0.0210627
0.0212531
0.0214222
0.0215693
0.0216934
0.0217941
0.021871
0.0219239
0.021953
0.0219586
0.0219416
0.0219031
0.0218446
0.021768
0.0216757
0.0215702
0.0214548
0.0213328
0.0212081
0.0210845
0.0209658
0.0208555
0.020757
0.0206723
0.0206029
0.0205491
0.0205107
0.0204884
0.0158252
0.00976297
0.0081405
0.00873367
0.0102498
0.0119484
0.0134931
0.0147836
0.0158263
0.0166635
0.0173422
0.0179033
0.0183785
0.0187914
0.0191586
0.0194916
0.0197978
0.0200821
0.0203471
0.0205941
0.0208235
0.0210351
0.0212281
0.0214016
0.0215544
0.0216856
0.0217941
0.0218792
0.02194
0.0219762
0.0219877
0.0219745
0.0219372
0.0218767
0.0217941
0.0216913
0.0215704
0.0214339
0.021285
0.0211272
0.0209644
0.0208008
0.0206409
0.020489
0.0203494
0.0202257
0.0201209
0.0200373
0.0199768
0.0199422
0.0162921
0.0100408
0.00838714
0.00901457
0.01058
0.0123201
0.0138927
0.0151985
0.0162461
0.0170799
0.0177487
0.0182945
0.0187507
0.0191416
0.0194852
0.0197936
0.0200751
0.020335
0.0205763
0.0208006
0.0210085
0.0211997
0.0213734
0.0215287
0.0216642
0.0217787
0.021871
0.02194
0.0219847
0.0220044
0.0219987
0.0219673
0.0219106
0.021829
0.0217236
0.0215958
0.0214476
0.0212815
0.0211004
0.0209079
0.0207079
0.020505
0.0203041
0.0201104
0.0199289
0.019765
0.0196232
0.0195081
0.0194239
0.0193761
0.0167474
0.0103121
0.00862926
0.00929107
0.0109048
0.0126853
0.014285
0.0156056
0.016658
0.0174886
0.0181477
0.0186786
0.0191156
0.0194845
0.0198039
0.0200869
0.0203425
0.0205766
0.0207928
0.0209928
0.0211774
0.0213466
0.0214995
0.021635
0.0217519
0.0218487
0.0219239
0.0219762
0.0220044
0.0220075
0.0219847
0.0219355
0.0218599
0.021758
0.0216308
0.0214792
0.0213051
0.0211106
0.0208987
0.0206727
0.0204367
0.0201955
0.0199544
0.019719
0.0194957
0.0192909
0.0191112
0.0189634
0.0188544
0.0187927
0.0171908
0.0105768
0.00886673
0.00956298
0.0112242
0.013044
0.0146699
0.0160049
0.0170621
0.0178897
0.0185395
0.0190558
0.019474
0.0198208
0.0201156
0.0203726
0.0206014
0.0208084
0.0209979
0.021172
0.0213317
0.021477
0.0216074
0.0217216
0.0218183
0.021896
0.021953
0.0219877
0.0219987
0.0219847
0.0219446
0.0218777
0.0217835
0.0216621
0.0215137
0.0213393
0.0211404
0.0209189
0.0206774
0.0204193
0.0201487
0.0198704
0.01959
0.0193139
0.0190492
0.0188037
0.0185859
0.0184049
0.0182707
0.0181948
0.0176219
0.0108346
0.00909937
0.00983007
0.0115378
0.0133958
0.0150472
0.0163961
0.0174581
0.0182831
0.0189241
0.0194264
0.0198263
0.0201511
0.0204213
0.0206517
0.0208528
0.0210318
0.0211932
0.0213397
0.0214727
0.0215925
0.0216984
0.0217895
0.0218644
0.0219213
0.0219586
0.0219745
0.0219673
0.0219355
0.0218777
0.0217928
0.0216802
0.0215394
0.0213705
0.0211741
0.0209513
0.0207038
0.0204341
0.0201453
0.0198415
0.0195275
0.0192093
0.0188937
0.0185887
0.0183034
0.0180482
0.0178346
0.0176752
0.0175852
0.0180405
0.0110855
0.00932693
0.010092
0.0118453
0.0137404
0.0154164
0.016779
0.0178459
0.0186686
0.0193014
0.0197904
0.0201725
0.0204759
0.0207216
0.0209253
0.0210982
0.021248
0.0213801
0.0214976
0.0216022
0.0216945
0.0217741
0.0218401
0.0218912
0.0219256
0.0219416
0.0219372
0.0219106
0.0218599
0.0217835
0.0216802
0.0215488
0.0213886
0.0211995
0.0209815
0.0207356
0.0204632
0.0201665
0.0198483
0.0195127
0.0191647
0.0188103
0.0184569
0.0181134
0.0177901
0.0174991
0.0172542
0.017071
0.0169674
0.0184459
0.011329
0.00954909
0.0103484
0.0121463
0.0140773
0.0157772
0.0171531
0.0182249
0.0190459
0.0196711
0.0201477
0.0205129
0.0207955
0.0210172
0.0211942
0.0213385
0.0214586
0.0215603
0.0216474
0.0217219
0.0217849
0.0218362
0.0218751
0.0219004
0.0219104
0.0219031
0.0218767
0.021829
0.021758
0.0216621
0.0215394
0.0213886
0.0212088
0.0209993
0.0207601
0.0204917
0.0201951
0.0198723
0.019526
0.0191602
0.0187798
0.0183911
0.0180022
0.0176226
0.0172639
0.0169398
0.0166663
0.0164614
0.0163456
0.0188378
0.011565
0.0097655
0.0105988
0.0124401
0.014406
0.016129
0.0175179
0.0185947
0.0194144
0.0200329
0.0204979
0.0208472
0.0211099
0.0213083
0.0214591
0.0215749
0.0216648
0.0217353
0.0217907
0.0218338
0.0218657
0.0218868
0.0218965
0.0218939
0.0218772
0.0218446
0.0217941
0.0217236
0.0216308
0.0215137
0.0213705
0.0211995
0.0209993
0.0207692
0.0205087
0.0202179
0.0198976
0.0195496
0.0191765
0.0187819
0.018371
0.0179504
0.0175286
0.017116
0.0167255
0.0163724
0.0160741
0.0158509
0.0157251
0.0192155
0.0117929
0.00997572
0.0108427
0.0127262
0.0147258
0.0164711
0.0178727
0.0189546
0.0197734
0.020386
0.0208405
0.0211751
0.0214191
0.0215951
0.0217204
0.021808
0.0218677
0.0219066
0.0219295
0.0219397
0.0219389
0.0219279
0.0219065
0.0218737
0.0218281
0.021768
0.0216913
0.0215958
0.0214792
0.0213393
0.0211741
0.0209815
0.0207601
0.0205087
0.0202264
0.0199132
0.0195697
0.0191972
0.0187982
0.0183764
0.017937
0.0174871
0.0170357
0.0165943
0.0161768
0.0157999
0.0154825
0.0152457
0.0151126
0.0195783
0.0120125
0.0101793
0.0110794
0.0130039
0.015036
0.0168027
0.0182165
0.0193037
0.0201222
0.0207297
0.0211748
0.0214959
0.0217225
0.0218775
0.0219783
0.0220385
0.0220683
0.0220754
0.0220652
0.0220416
0.0220068
0.0219621
0.0219074
0.0218423
0.0217656
0.0216757
0.0215704
0.0214476
0.0213051
0.0211404
0.0209513
0.0207356
0.0204917
0.0202179
0.0199132
0.0195774
0.0192106
0.0188141
0.0183903
0.0179429
0.0174773
0.0170012
0.0165243
0.0160593
0.0156211
0.0152275
0.0148979
0.0146536
0.0145169
0.0199255
0.0122231
0.0103757
0.0113084
0.0132723
0.0153356
0.017123
0.0185487
0.0196412
0.0204597
0.0210629
0.0214997
0.0218086
0.0220194
0.0221548
0.0222326
0.0222665
0.0222673
0.0222429
0.0221996
0.0221415
0.0220716
0.0219916
0.021902
0.0218026
0.0216925
0.0215702
0.0214339
0.0212815
0.0211106
0.0209189
0.0207038
0.0204632
0.0201951
0.0198976
0.0195697
0.0192106
0.0188204
0.0184004
0.0179528
0.0174816
0.0169926
0.0164941
0.015997
0.0155149
0.0150639
0.0146622
0.0143292
0.0140844
0.0139484
0.0202564
0.0124244
0.0105642
0.0115287
0.0135307
0.0156238
0.0174309
0.018868
0.0199658
0.0207849
0.0213846
0.0218142
0.0221124
0.0223088
0.0224263
0.0224827
0.0224919
0.0224647
0.0224098
0.0223336
0.022241
0.0221354
0.022019
0.0218929
0.0217573
0.0216117
0.0214548
0.021285
0.0211004
0.0208987
0.0206774
0.0204341
0.0201665
0.0198723
0.0195496
0.0191972
0.0188141
0.0184004
0.0179572
0.017487
0.0169942
0.0164852
0.0159693
0.0154585
0.0149675
0.0145133
0.0141138
0.0137868
0.0135492
0.0134182
0.02057
0.0126156
0.0107443
0.0117395
0.0137779
0.0158994
0.0177252
0.0191734
0.0202765
0.0210965
0.0216934
0.0221169
0.0224057
0.0225894
0.0226908
0.0227277
0.0227139
0.0226605
0.0225763
0.0224682
0.0223415
0.0222001
0.0220467
0.021883
0.0217097
0.0215265
0.0213328
0.0211272
0.0209079
0.0206727
0.0204193
0.0201453
0.0198483
0.019526
0.0191765
0.0187982
0.0183903
0.0179528
0.017487
0.0169959
0.0164843
0.0159597
0.0154325
0.0149161
0.0144261
0.0139797
0.0135934
0.0132822
0.0130592
0.0129372
0.0208654
0.0127962
0.0109152
0.01194
0.014013
0.0161613
0.0180048
0.0194635
0.0205719
0.021393
0.0219879
0.0224062
0.0226869
0.0228595
0.0229467
0.0229661
0.0229314
0.0228539
0.0227422
0.0226036
0.0224438
0.0222671
0.0220767
0.0218749
0.0216627
0.0214406
0.0212081
0.0209644
0.0207079
0.0204367
0.0201487
0.0198415
0.0195127
0.0191602
0.0187819
0.0183764
0.0179429
0.0174816
0.0169942
0.0164843
0.0159577
0.0154232
0.0148926
0.0143803
0.0139025
0.0134754
0.0131129
0.0128261
0.0126235
0.0125134
0.0211416
0.0129655
0.0110761
0.0121291
0.0142346
0.0164081
0.0182682
0.0197369
0.0208503
0.0216729
0.0222662
0.0226804
0.0229543
0.0231173
0.0231921
0.0231961
0.0231428
0.0230433
0.0229064
0.0227394
0.0225482
0.0223374
0.0221106
0.0218707
0.0216192
0.0213571
0.0210845
0.0208008
0.020505
0.0201955
0.0198704
0.0195275
0.0191647
0.0187798
0.018371
0.017937
0.0174773
0.0169926
0.0164852
0.0159597
0.0154232
0.014886
0.0143612
0.0138639
0.0134098
0.0130126
0.0126826
0.0124262
0.0122474
0.0121508
0.0213975
0.0131226
0.0112261
0.0123056
0.0144415
0.0166383
0.0185139
0.0199919
0.0211102
0.0219344
0.0225266
0.0229374
0.0232056
0.0233606
0.0234248
0.0234154
0.0233459
0.023227
0.0230674
0.0228744
0.0226539
0.0224109
0.0221493
0.0218722
0.0215817
0.0212793
0.0209658
0.0206409
0.0203041
0.0199544
0.01959
0.0192093
0.0188103
0.0183911
0.0179504
0.0174871
0.0170012
0.0164941
0.0159693
0.0154325
0.0148926
0.0143612
0.0138523
0.013381
0.0129606
0.0126015
0.0123093
0.012086
0.011932
0.011849
0.0216316
0.0132667
0.0113641
0.0124683
0.0146321
0.0168504
0.0187401
0.0202266
0.0213495
0.0221754
0.022767
0.0231751
0.0234386
0.0235869
0.0236421
0.0236214
0.0235379
0.0234022
0.0232227
0.0230066
0.0227597
0.0224871
0.0221928
0.0218802
0.021552
0.0212101
0.0208555
0.020489
0.0201104
0.019719
0.0193139
0.0188937
0.0184569
0.0180022
0.0175286
0.0170357
0.0165243
0.015997
0.0154585
0.0149161
0.0143803
0.0138639
0.013381
0.0129447
0.0125652
0.0122483
0.0119954
0.0118047
0.0116742
0.0116038
0.0218423
0.0133966
0.0114889
0.0126157
0.0148048
0.0170424
0.0189449
0.0204391
0.0215661
0.0223937
0.0229849
0.0233909
0.0236506
0.0237934
0.0238413
0.0238111
0.0237159
0.0235659
0.0233693
0.0231332
0.0228631
0.022564
0.02224
0.0218947
0.021531
0.0211512
0.020757
0.0203494
0.0199289
0.0194957
0.0190492
0.0185887
0.0181134
0.0176226
0.017116
0.0165943
0.0160593
0.0155149
0.0149675
0.0144261
0.0139025
0.0134098
0.0129606
0.0125652
0.0122295
0.0119548
0.0117389
0.011578
0.0114684
0.011409
0.0220276
0.0135111
0.0115992
0.012746
0.0149574
0.017212
0.0191257
0.0206267
0.0217575
0.0225866
0.0231777
0.023582
0.0238387
0.023977
0.024019
0.0239811
0.0238763
0.0237144
0.0235037
0.0232506
0.0229607
0.0226388
0.0222888
0.0219144
0.0215185
0.0211038
0.0206723
0.0202257
0.019765
0.0192909
0.0188037
0.0183034
0.0177901
0.0172639
0.0167255
0.0161768
0.0156211
0.0150639
0.0145133
0.0139797
0.0134754
0.0130126
0.0126015
0.0122483
0.0119548
0.0117187
0.0115355
0.0114
0.011308
0.0112579
0.0221849
0.0136083
0.0116931
0.0128571
0.0150876
0.0173566
0.0192797
0.0207866
0.0219206
0.022751
0.0233421
0.0237451
0.0239995
0.0241343
0.0241714
0.0241275
0.024015
0.0238437
0.0236215
0.0233548
0.0230487
0.0227077
0.0223359
0.0219366
0.021513
0.0210676
0.0206029
0.0201209
0.0196232
0.0191112
0.0185859
0.0180482
0.0174991
0.0169398
0.0163724
0.0157999
0.0152275
0.0146622
0.0141138
0.0135934
0.0131129
0.0126826
0.0123093
0.0119954
0.0117389
0.0115355
0.0113791
0.0112644
0.0111868
0.0111443
0.0223109
0.0136864
0.0117686
0.0129465
0.0151922
0.0174727
0.0194035
0.020915
0.0220515
0.0228831
0.0234741
0.0238763
0.0241288
0.0242609
0.0242944
0.0242458
0.0241274
0.0239489
0.023718
0.0234406
0.0231219
0.0227662
0.0223771
0.021958
0.0215119
0.0210414
0.0205491
0.0200373
0.0195081
0.0189634
0.0184049
0.0178346
0.0172542
0.0166663
0.0160741
0.0154825
0.0148979
0.0143292
0.0137868
0.0132822
0.0128261
0.0124262
0.012086
0.0118047
0.011578
0.0114
0.0112644
0.0111656
0.0110993
0.0110628
0.022402
0.0137427
0.0118232
0.013011
0.0152677
0.0175566
0.0194928
0.0210075
0.0221458
0.0229781
0.0235691
0.0239705
0.0242217
0.0243518
0.0243828
0.0243308
0.0242082
0.0240246
0.0237875
0.0235027
0.0231752
0.022809
0.0224077
0.0219744
0.021512
0.0210233
0.0205107
0.0199768
0.0194239
0.0188544
0.0182707
0.0176752
0.017071
0.0164614
0.0158509
0.0152457
0.0146536
0.0140844
0.0135492
0.0130592
0.0126235
0.0122474
0.011932
0.0116742
0.0114684
0.011308
0.0111868
0.0110993
0.0110412
0.0110093
0.0224533
0.0137743
0.0118535
0.0130468
0.0153096
0.0176029
0.019542
0.0210584
0.0221976
0.0230302
0.0236209
0.0240217
0.0242719
0.0244008
0.0244301
0.0243761
0.0242512
0.0240647
0.0238241
0.0235352
0.0232029
0.022831
0.022423
0.0219821
0.0215109
0.0210121
0.0204884
0.0199422
0.0193761
0.0187927
0.0181948
0.0175852
0.0169674
0.0163456
0.0157251
0.0151126
0.0145169
0.0139484
0.0134182
0.0129372
0.0125134
0.0121508
0.011849
0.0116038
0.011409
0.0112579
0.0111443
0.0110628
0.0110093
0.0109804
)
;

boundaryField
{
    bottomWall
    {
        type            kqRWallFunction;
        value           nonuniform List<scalar> 
50
(
0.0012967
0.00138708
0.0015971
0.00192371
0.00235126
0.00285988
0.00342992
0.00404392
0.00468728
0.00534815
0.00601711
0.00668684
0.0073518
0.008008
0.00865275
0.00928438
0.00990205
0.0105055
0.0110947
0.0116702
0.0122322
0.0127814
0.0133181
0.0138427
0.0143556
0.0148569
0.0153468
0.0158252
0.0162921
0.0167474
0.0171908
0.0176219
0.0180405
0.0184459
0.0188378
0.0192155
0.0195783
0.0199255
0.0202564
0.02057
0.0208654
0.0211416
0.0213975
0.0216316
0.0218423
0.0220276
0.0221849
0.0223109
0.022402
0.0224533
)
;
    }
    leftWall
    {
        type            kqRWallFunction;
        value           nonuniform List<scalar> 
50
(
0.0012967
0.00138708
0.0015971
0.00192371
0.00235126
0.00285988
0.00342992
0.00404392
0.00468728
0.00534815
0.00601711
0.00668684
0.0073518
0.008008
0.00865275
0.00928438
0.00990205
0.0105055
0.0110947
0.0116702
0.0122322
0.0127814
0.0133181
0.0138427
0.0143556
0.0148569
0.0153468
0.0158252
0.0162921
0.0167474
0.0171908
0.0176219
0.0180405
0.0184459
0.0188378
0.0192155
0.0195783
0.0199255
0.0202564
0.02057
0.0208654
0.0211416
0.0213975
0.0216316
0.0218423
0.0220276
0.0221849
0.0223109
0.022402
0.0224533
)
;
    }
    topSym
    {
        type            symmetryPlane;
    }
    rightSym
    {
        type            symmetryPlane;
    }
    inlet
    {
        type            cyclic;
    }
    outlet
    {
        type            cyclic;
    }
}


// ************************************************************************* //
