/*--------------------------------*- C++ -*----------------------------------*\
| =========                 |                                                 |
| \\      /  F ield         | OpenFOAM: The Open Source CFD Toolbox           |
|  \\    /   O peration     | Version:  v1912                                 |
|   \\  /    A nd           | Website:  www.openfoam.com                      |
|    \\/     M anipulation  |                                                 |
\*---------------------------------------------------------------------------*/
FoamFile
{
    version     2.0;
    format      ascii;
    class       volScalarField;
    location    "1000";
    object      turbulenceProperties:epsilon;
}
// * * * * * * * * * * * * * * * * * * * * * * * * * * * * * * * * * * * * * //

dimensions      [0 2 -3 0 0 0 0];


internalField   nonuniform List<scalar> 
2500
(
0.012031
0.0133107
0.0164455
0.0217404
0.0293772
0.0394079
0.0517592
0.0662621
0.0826879
0.100778
0.120265
0.140892
0.162422
0.184646
0.207388
0.230505
0.253885
0.277441
0.301108
0.324835
0.348583
0.372319
0.396015
0.419645
0.443182
0.466599
0.489865
0.512951
0.53582
0.558436
0.580759
0.602745
0.624348
0.645516
0.666197
0.686333
0.705864
0.724726
0.742853
0.760172
0.776609
0.792084
0.806507
0.819781
0.831791
0.8424
0.85144
0.858708
0.863969
0.866938
0.0133107
0.0106112
0.0106257
0.0124386
0.0156578
0.0200695
0.0255154
0.0318513
0.0389367
0.0466364
0.0548235
0.0633836
0.0722168
0.0812394
0.0903841
0.0995988
0.108844
0.118092
0.127322
0.136521
0.145677
0.154784
0.163835
0.172823
0.181743
0.190586
0.199345
0.208011
0.216573
0.225021
0.233341
0.24152
0.249542
0.25739
0.265047
0.272493
0.279706
0.286666
0.293349
0.299729
0.30578
0.311473
0.316777
0.321655
0.326067
0.329963
0.333282
0.335949
0.337879
0.338966
0.0164455
0.0106257
0.00847182
0.00836149
0.00951714
0.0115417
0.0142126
0.017387
0.0209598
0.0248454
0.028971
0.0332746
0.0377045
0.0422186
0.0467843
0.0513768
0.0559785
0.060577
0.065164
0.0697342
0.0742838
0.0788104
0.0833117
0.0877856
0.0922296
0.096641
0.101016
0.105351
0.109641
0.113881
0.118064
0.122183
0.126231
0.130199
0.134077
0.137856
0.141524
0.145071
0.148482
0.151745
0.154845
0.157767
0.160493
0.163003
0.165276
0.167286
0.168999
0.170376
0.171373
0.171933
0.0217404
0.0124386
0.00836149
0.00693975
0.00696965
0.00786588
0.00932726
0.0111859
0.013338
0.0157116
0.0182522
0.0209171
0.0236719
0.0264898
0.0293502
0.0322377
0.0351417
0.0380546
0.0409714
0.0438888
0.0468045
0.0497168
0.052624
0.0555247
0.0584169
0.0612983
0.0641664
0.0670181
0.0698497
0.0726571
0.0754356
0.0781801
0.0808848
0.0835433
0.0861486
0.0886931
0.0911689
0.0935674
0.0958791
0.0980942
0.100202
0.102191
0.10405
0.105763
0.107316
0.108689
0.109861
0.110804
0.111486
0.111868
0.0293772
0.0156578
0.00951714
0.00696965
0.00622988
0.00647761
0.00731539
0.00853532
0.0100189
0.0116923
0.0135053
0.0154217
0.0174145
0.0194636
0.0215541
0.0236749
0.0258185
0.0279797
0.0301547
0.0323412
0.0345372
0.0367412
0.0389516
0.0411668
0.0433847
0.0456032
0.0478195
0.0500307
0.0522333
0.0544234
0.0565967
0.0587485
0.0608734
0.062966
0.0650199
0.0670286
0.0689853
0.0708825
0.0727124
0.0744666
0.0761364
0.0777126
0.0791849
0.0805423
0.0817723
0.08286
0.0837876
0.0845339
0.0850737
0.0853761
0.0394079
0.0200695
0.0115417
0.00786588
0.00647761
0.00625766
0.00669262
0.0075263
0.00861926
0.00988947
0.0112853
0.0127725
0.0143274
0.0159334
0.0175788
0.0192555
0.0209579
0.0226825
0.0244268
0.0261888
0.0279673
0.029761
0.0315683
0.0333876
0.035217
0.0370541
0.0388962
0.0407403
0.0425827
0.0444198
0.046247
0.0480599
0.0498533
0.0516217
0.0533595
0.0550603
0.0567179
0.0583255
0.0598761
0.0613622
0.0627762
0.0641102
0.0653553
0.0665025
0.0675409
0.0684585
0.0692404
0.069869
0.0703235
0.070578
0.0517592
0.0255154
0.0142126
0.00932726
0.00731539
0.00669262
0.00680894
0.0073535
0.00816342
0.00914664
0.0102481
0.0114332
0.0126797
0.0139728
0.0153029
0.0166636
0.0180509
0.0194623
0.0208964
0.022352
0.0238284
0.0253246
0.0268395
0.0283719
0.0299198
0.031481
0.0330531
0.0346328
0.0362167
0.037801
0.0393814
0.0409532
0.0425113
0.0440505
0.045565
0.0470489
0.0484961
0.0499001
0.0512543
0.052552
0.0537862
0.0549497
0.0560349
0.0570337
0.0579369
0.0587341
0.0594128
0.059958
0.0603519
0.0605721
0.0662621
0.0318513
0.017387
0.0111859
0.00853532
0.0075263
0.0073535
0.00764595
0.008216
0.00896126
0.00982259
0.0107642
0.011764
0.0128079
0.0138872
0.0149963
0.016132
0.0172925
0.0184769
0.0196847
0.0209156
0.0221692
0.023445
0.024742
0.0260588
0.0273935
0.0287438
0.030107
0.0314797
0.0328582
0.0342384
0.0356156
0.0369848
0.0383409
0.0396781
0.0409905
0.0422722
0.0435169
0.0447181
0.0458695
0.0469645
0.0479964
0.0489583
0.0498428
0.050642
0.0513466
0.0519459
0.0524269
0.0527741
0.0529678
0.0826879
0.0389367
0.0209598
0.013338
0.0100189
0.00861926
0.00816342
0.008216
0.00856378
0.00909378
0.0097425
0.0104726
0.0112612
0.0120941
0.0129625
0.0138609
0.0147862
0.0157365
0.0167112
0.01771
0.0187329
0.0197799
0.0208508
0.0219452
0.0230622
0.0242005
0.0253582
0.0265331
0.0277222
0.0289221
0.0301291
0.0313386
0.0325458
0.0337457
0.0349326
0.0361008
0.0372441
0.0383565
0.0394315
0.0404629
0.0414443
0.0423694
0.0432315
0.044024
0.0447396
0.0453699
0.0459056
0.0463352
0.0466451
0.0468174
0.100778
0.0466364
0.0248454
0.0157116
0.0116923
0.00988947
0.00914664
0.00896126
0.00909378
0.00942039
0.00987284
0.0104115
0.0110123
0.0116603
0.0123461
0.0130635
0.0138089
0.0145801
0.015376
0.0161963
0.0170409
0.0179098
0.0188033
0.0197211
0.0206629
0.021628
0.022615
0.0236223
0.0246476
0.025688
0.0267401
0.0278
0.0288631
0.0299246
0.0309791
0.0320208
0.0330438
0.0340419
0.0350088
0.0359381
0.0368236
0.037659
0.038438
0.0391541
0.0398005
0.0403697
0.040853
0.0412405
0.0415196
0.0416742
0.120265
0.0548235
0.028971
0.0182522
0.0135053
0.0112853
0.0102481
0.00982259
0.0097425
0.00987284
0.01014
0.0105015
0.0109315
0.0114139
0.011938
0.0124969
0.013086
0.0137026
0.0143447
0.0150115
0.0157027
0.016418
0.0171576
0.0179216
0.0187098
0.0195219
0.0203573
0.0212147
0.0220926
0.0229888
0.0239006
0.0248246
0.0257568
0.0266927
0.0276273
0.0285551
0.0294704
0.0303668
0.0312382
0.0320782
0.0328804
0.0336385
0.0343463
0.0349974
0.0355853
0.0361029
0.0365424
0.0368944
0.0371478
0.0372876
0.140892
0.0633836
0.0332746
0.0209171
0.0154217
0.0127725
0.0114332
0.0107642
0.0104726
0.0104115
0.0105015
0.0106967
0.0109689
0.0113002
0.0116788
0.0120965
0.0125478
0.0130289
0.0135371
0.014071
0.0146294
0.0152119
0.0158182
0.0164484
0.0171024
0.0177801
0.0184811
0.0192049
0.0199504
0.0207162
0.0215003
0.0222999
0.0231119
0.0239324
0.0247567
0.0255799
0.0263965
0.0272005
0.0279854
0.028745
0.029473
0.0301628
0.0308081
0.0314027
0.03194
0.0324133
0.0328153
0.0331372
0.0333686
0.0334958
0.162422
0.0722168
0.0377045
0.0236719
0.0174145
0.0143274
0.0126797
0.011764
0.0112612
0.0110123
0.0109315
0.0109689
0.0110935
0.0112854
0.011531
0.0118211
0.0121488
0.0125094
0.0128996
0.0133168
0.0137594
0.0142262
0.0147168
0.0152305
0.0157674
0.0163273
0.01691
0.0175153
0.0181425
0.0187909
0.019459
0.0201451
0.0208465
0.0215601
0.0222821
0.0230081
0.0237329
0.024451
0.025156
0.0258419
0.0265021
0.0271301
0.0277194
0.0282636
0.0287564
0.0291909
0.0295601
0.0298559
0.0300683
0.0301845
0.184646
0.0812394
0.0422186
0.0264898
0.0194636
0.0159334
0.0139728
0.0128079
0.0120941
0.0116603
0.0114139
0.0113002
0.0112854
0.0113469
0.0114696
0.0116427
0.0118582
0.0121103
0.0123947
0.0127082
0.0130485
0.0134137
0.0138028
0.0142148
0.0146493
0.0151061
0.0155849
0.0160855
0.0166077
0.0171509
0.0177145
0.0182971
0.018897
0.0195119
0.0201388
0.0207737
0.0214125
0.0220499
0.02268
0.0232969
0.023894
0.0244649
0.0250028
0.0255014
0.0259539
0.0263538
0.0266939
0.0269666
0.0271623
0.0272689
0.207388
0.0903841
0.0467843
0.0293502
0.0215541
0.0175788
0.0153029
0.0138872
0.0129625
0.0123461
0.011938
0.0116788
0.011531
0.0114696
0.0114774
0.011542
0.0116542
0.0118072
0.0119958
0.0122159
0.0124646
0.0127394
0.0130387
0.013361
0.0137056
0.0140718
0.0144593
0.0148677
0.0152969
0.0157465
0.0162163
0.0167054
0.0172128
0.0177369
0.0182753
0.0188253
0.019383
0.0199441
0.0205032
0.0210547
0.0215922
0.0221092
0.0225992
0.0230553
0.0234708
0.0238391
0.024153
0.0244048
0.0245855
0.0246836
0.230505
0.0995988
0.0513768
0.0322377
0.0236749
0.0192555
0.0166636
0.0149963
0.0138609
0.0130635
0.0124969
0.0120965
0.0118211
0.0116427
0.011542
0.0115049
0.011521
0.0115824
0.0116831
0.0118181
0.0119839
0.0121773
0.0123962
0.0126387
0.0129036
0.0131898
0.0134966
0.0138237
0.0141706
0.0145373
0.0149234
0.0153285
0.0157521
0.0161931
0.01665
0.0171207
0.0176023
0.0180911
0.0185827
0.0190716
0.019552
0.0200177
0.0204619
0.0208779
0.0212588
0.0215976
0.0218872
0.02212
0.022287
0.0223774
0.253885
0.108844
0.0559785
0.0351417
0.0258185
0.0209579
0.0180509
0.016132
0.0147862
0.0138089
0.013086
0.0125478
0.0121488
0.0118582
0.0116542
0.011521
0.0114469
0.0114229
0.011442
0.0114986
0.0115884
0.0117078
0.0118539
0.0120246
0.0122181
0.012433
0.0126682
0.0129232
0.0131973
0.0134903
0.013802
0.014132
0.0144801
0.0148458
0.0152279
0.0156253
0.0160357
0.0164563
0.0168835
0.0173124
0.0177379
0.018154
0.0185541
0.0189315
0.0192792
0.01959
0.0198568
0.0200717
0.0202261
0.0203094
0.277441
0.118092
0.060577
0.0380546
0.0279797
0.0226825
0.0194623
0.0172925
0.0157365
0.0145801
0.0137026
0.0130289
0.0125094
0.0121103
0.0118072
0.0115824
0.0114229
0.0113185
0.0112612
0.0112448
0.0112643
0.0113155
0.0113952
0.0115006
0.0116295
0.0117803
0.0119515
0.0121422
0.0123515
0.012579
0.0128244
0.0130875
0.0133679
0.0136655
0.0139798
0.0143097
0.014654
0.0150106
0.0153767
0.0157483
0.0161207
0.0164886
0.0168458
0.0171856
0.017501
0.0177848
0.0180296
0.0182276
0.0183699
0.0184465
0.301108
0.127322
0.065164
0.0409714
0.0301547
0.0244268
0.0208964
0.0184769
0.0167112
0.015376
0.0143447
0.0135371
0.0128996
0.0123947
0.0119958
0.0116831
0.011442
0.0112612
0.0111319
0.011047
0.0110008
0.0109888
0.0110071
0.0110526
0.0111226
0.0112152
0.0113286
0.0114614
0.0116128
0.0117819
0.0119682
0.0121714
0.0123914
0.0126279
0.0128806
0.0131491
0.0134325
0.0137295
0.014038
0.0143549
0.0146762
0.0149973
0.0153125
0.0156153
0.015899
0.0161563
0.0163796
0.0165609
0.0166917
0.0167619
0.324835
0.136521
0.0697342
0.0438888
0.0323412
0.0261888
0.022352
0.0196847
0.01771
0.0161963
0.0150115
0.014071
0.0133168
0.0127082
0.0122159
0.0118181
0.0114986
0.0112448
0.011047
0.0108972
0.0107894
0.0107181
0.0106793
0.0106692
0.0106851
0.0107244
0.0107851
0.0108657
0.0109647
0.0110813
0.0112148
0.0113645
0.0115303
0.011712
0.0119093
0.0121221
0.0123499
0.0125917
0.0128464
0.0131115
0.0133839
0.0136596
0.0139336
0.0142
0.0144522
0.0146831
0.0148851
0.01505
0.0151693
0.0152333
0.348583
0.145677
0.0742838
0.0468045
0.0345372
0.0279673
0.0238284
0.0209156
0.0187329
0.0170409
0.0157027
0.0146294
0.0137594
0.0130485
0.0124646
0.0119839
0.0115884
0.0112643
0.0110008
0.0107894
0.0106229
0.0104958
0.0104034
0.0103416
0.0103072
0.0102973
0.0103097
0.0103425
0.0103941
0.0104632
0.010549
0.0106508
0.0107681
0.0109005
0.0110481
0.0112106
0.0113877
0.0115791
0.0117837
0.0120003
0.0122261
0.0124581
0.0126919
0.0129224
0.0131433
0.0133477
0.0135282
0.0136766
0.0137845
0.0138424
0.372319
0.154784
0.0788104
0.0497168
0.0367412
0.029761
0.0253246
0.0221692
0.0197799
0.0179098
0.016418
0.0152119
0.0142262
0.0134137
0.0127394
0.0121773
0.0117078
0.0113155
0.0109888
0.0107181
0.0104958
0.0103158
0.0101726
0.0100622
0.00998072
0.00992517
0.00989291
0.00988176
0.00988992
0.00991592
0.00995858
0.010017
0.0100906
0.0101789
0.0102817
0.0103989
0.0105302
0.0106755
0.0108342
0.0110055
0.0111875
0.0113776
0.0115725
0.0117676
0.0119573
0.0121352
0.0122939
0.0124257
0.0125218
0.0125735
0.396015
0.163835
0.0833117
0.052624
0.0389516
0.0315683
0.0268395
0.023445
0.0208508
0.0188033
0.0171576
0.0158182
0.0147168
0.0138028
0.0130387
0.0123962
0.0118539
0.0113952
0.0110071
0.0106793
0.0104034
0.0101726
0.0099814
0.00982491
0.00969918
0.00960082
0.00952696
0.00947513
0.0094433
0.00942976
0.0094331
0.00945225
0.00948638
0.0095349
0.00959743
0.00967375
0.00976373
0.00986722
0.00998398
0.0101134
0.0102544
0.0104049
0.0105623
0.0107229
0.0108817
0.0110329
0.0111696
0.0112842
0.0113684
0.0114138
0.419645
0.172823
0.0877856
0.0555247
0.0411668
0.0333876
0.0283719
0.024742
0.0219452
0.0197211
0.0179216
0.0164484
0.0152305
0.0142148
0.013361
0.0126387
0.0120246
0.0115006
0.0110526
0.0106692
0.0103416
0.0100622
0.00982491
0.00962461
0.00945697
0.00931828
0.00920542
0.00911567
0.00904676
0.00899675
0.00896405
0.00894735
0.00894564
0.00895814
0.00898432
0.00902385
0.00907652
0.00914222
0.00922078
0.00931189
0.00941486
0.00952819
0.0096499
0.00977702
0.00990545
0.01003
0.0101444
0.0102415
0.0103134
0.0103522
0.443182
0.181743
0.0922296
0.0584169
0.0433847
0.035217
0.0299198
0.0260588
0.0230622
0.0206629
0.0187098
0.0171024
0.0157674
0.0146493
0.0137056
0.0129036
0.0122181
0.0116295
0.0111226
0.0106851
0.0103072
0.00998072
0.00969918
0.00945697
0.0092494
0.00907251
0.00892286
0.00879754
0.00869403
0.0086102
0.00854423
0.00849463
0.00846018
0.00843995
0.00843322
0.00843951
0.00845851
0.00849004
0.00853398
0.00859013
0.0086581
0.00873683
0.00882486
0.00891993
0.00901873
0.00911685
0.00920876
0.00928794
0.00934718
0.00937931
0.466599
0.190586
0.096641
0.0612983
0.0456032
0.0370541
0.031481
0.0273935
0.0242005
0.021628
0.0195219
0.0177801
0.0163273
0.0151061
0.0140718
0.0131898
0.012433
0.0117803
0.0112152
0.0107244
0.0102973
0.00992517
0.00960082
0.00931828
0.00907251
0.0088592
0.00867468
0.0085158
0.00837982
0.00826441
0.00816756
0.00808758
0.00802309
0.00797295
0.00793628
0.00791245
0.00790101
0.00790168
0.00791428
0.00793867
0.00797462
0.0080214
0.00807795
0.00814261
0.00821283
0.00828501
0.00835448
0.00841553
0.0084618
0.00848698
0.489865
0.199345
0.101016
0.0641664
0.0478195
0.0388962
0.0330531
0.0287438
0.0253582
0.022615
0.0203573
0.0184811
0.01691
0.0155849
0.0144593
0.0134966
0.0126682
0.0119515
0.0113286
0.0107851
0.0103097
0.00989291
0.00952696
0.00920542
0.00892286
0.00867468
0.00845694
0.00826622
0.0080996
0.00795454
0.00782886
0.00772069
0.00762845
0.00755085
0.00748683
0.0074356
0.00739656
0.0073693
0.00735356
0.00734916
0.00735592
0.00737341
0.0074008
0.00743691
0.00747987
0.00752689
0.0075742
0.00761708
0.00765017
0.00766824
0.512951
0.208011
0.105351
0.0670181
0.0500307
0.0407403
0.0346328
0.030107
0.0265331
0.0236223
0.0212147
0.0192049
0.0175153
0.0160855
0.0148677
0.0138237
0.0129232
0.0121422
0.0114614
0.0108657
0.0103425
0.00988176
0.00947513
0.00911567
0.00879754
0.0085158
0.00826622
0.00804516
0.00784948
0.00767645
0.0075237
0.0073892
0.00727121
0.00716825
0.00707913
0.00700287
0.00693872
0.00688613
0.00684474
0.00681428
0.00679455
0.0067853
0.00678585
0.00679542
0.00681268
0.00683559
0.00686132
0.00688622
0.00690609
0.00691697
0.53582
0.216573
0.109641
0.0698497
0.0522333
0.0425827
0.0362167
0.0314797
0.0277222
0.0246476
0.0220926
0.0199504
0.0181425
0.0166077
0.0152969
0.0141706
0.0131973
0.0123515
0.0116128
0.0109647
0.0103941
0.00988992
0.0094433
0.00904676
0.00869403
0.00837982
0.0080996
0.00784948
0.0076261
0.00742654
0.00724825
0.00708904
0.00694701
0.00682053
0.00670823
0.00660899
0.00652191
0.0064463
0.00638165
0.00632759
0.00628388
0.0062503
0.00622633
0.00621143
0.00620473
0.00620486
0.00620987
0.00621724
0.00622408
0.00622779
0.558436
0.225021
0.113881
0.0726571
0.0544234
0.0444198
0.037801
0.0328582
0.0289221
0.025688
0.0229888
0.0207162
0.0187909
0.0171509
0.0157465
0.0145373
0.0134903
0.012579
0.0117819
0.0110813
0.0104632
0.00991592
0.00942976
0.00899675
0.0086102
0.00826441
0.00795454
0.00767645
0.00742654
0.00720169
0.00699919
0.00681667
0.00665208
0.00650365
0.00636986
0.00624943
0.00614132
0.00604469
0.0059589
0.00588346
0.00581804
0.00576239
0.00571615
0.00567888
0.00565007
0.00562895
0.00561441
0.00560501
0.00559922
0.00559594
0.580759
0.233341
0.118064
0.0754356
0.0565967
0.046247
0.0393814
0.0342384
0.0301291
0.0267401
0.0239006
0.0215003
0.019459
0.0177145
0.0162163
0.0149234
0.013802
0.0128244
0.0119682
0.0112148
0.010549
0.00995858
0.0094331
0.00896405
0.00854423
0.00816756
0.00782886
0.0075237
0.00724825
0.00699919
0.00677361
0.006569
0.00638315
0.00621413
0.0060603
0.00592024
0.00579275
0.00567686
0.0055718
0.00547695
0.00539188
0.00531628
0.00524988
0.00519231
0.00514334
0.00510268
0.00506999
0.00504487
0.00502714
0.00501721
0.602745
0.24152
0.122183
0.0781801
0.0587485
0.0480599
0.0409532
0.0356156
0.0313386
0.0278
0.0248246
0.0222999
0.0201451
0.0182971
0.0167054
0.0153285
0.014132
0.0130875
0.0121714
0.0113645
0.0106508
0.010017
0.00945225
0.00894735
0.00849463
0.00808758
0.00772069
0.0073892
0.00708904
0.00681667
0.006569
0.00634334
0.00613734
0.00594893
0.00577632
0.00561796
0.00547254
0.00533893
0.00521624
0.00510374
0.00500088
0.00490728
0.0048227
0.00474684
0.00467969
0.00462135
0.00457214
0.00453265
0.00450394
0.00448785
0.624348
0.249542
0.126231
0.0808848
0.0608734
0.0498533
0.0425113
0.0369848
0.0325458
0.0288631
0.0257568
0.0231119
0.0208465
0.018897
0.0172128
0.0157521
0.0144801
0.0133679
0.0123914
0.0115303
0.0107681
0.0100906
0.00948638
0.00894564
0.00846018
0.00802309
0.00762845
0.00727121
0.00694701
0.00665208
0.00638315
0.00613734
0.00591214
0.00570536
0.00551507
0.00533959
0.00517748
0.00502751
0.00488864
0.00476004
0.00464106
0.00453125
0.00443036
0.00433818
0.00425483
0.00418078
0.00411691
0.00406466
0.0040262
0.00400464
0.645516
0.25739
0.130199
0.0835433
0.062966
0.0516217
0.0440505
0.0383409
0.0337457
0.0299246
0.0266927
0.0239324
0.0215601
0.0195119
0.0177369
0.0161931
0.0148458
0.0136655
0.0126279
0.011712
0.0109005
0.0101789
0.0095349
0.00895814
0.00843995
0.00797295
0.00755085
0.00716825
0.00682053
0.00650365
0.00621413
0.00594893
0.00570536
0.00548109
0.00527407
0.00508249
0.00490479
0.00473963
0.00458587
0.00444256
0.00430898
0.0041846
0.00406915
0.00396256
0.00386504
0.00377735
0.00370087
0.00363774
0.00359104
0.0035649
0.666197
0.265047
0.134077
0.0861486
0.0650199
0.0533595
0.045565
0.0396781
0.0349326
0.0309791
0.0276273
0.0247567
0.0222821
0.0201388
0.0182753
0.01665
0.0152279
0.0139798
0.0128806
0.0119093
0.0110481
0.0102817
0.00959743
0.00898432
0.00843322
0.00793628
0.00748683
0.00707913
0.00670823
0.00636986
0.0060603
0.00577632
0.00551507
0.00527407
0.00505113
0.00484433
0.00465201
0.0044727
0.00430518
0.00414843
0.00400163
0.00386423
0.00373593
0.0036168
0.00350715
0.00340803
0.0033212
0.00324935
0.00319619
0.00316651
0.686333
0.272493
0.137856
0.0886931
0.0670286
0.0550603
0.0470489
0.0409905
0.0361008
0.0320208
0.0285551
0.0255799
0.0230081
0.0207737
0.0188253
0.0171207
0.0156253
0.0143097
0.0131491
0.0121221
0.0112106
0.0103989
0.00967375
0.00902385
0.00843951
0.00791245
0.0074356
0.00700287
0.00660899
0.00624943
0.00592024
0.00561796
0.00533959
0.00508249
0.00484433
0.00462309
0.00441697
0.00422445
0.00404421
0.00387516
0.00371644
0.00356749
0.00342804
0.00329824
0.00317862
0.00307043
0.00297575
0.00289761
0.00284001
0.002808
0.705864
0.279706
0.141524
0.0911689
0.0689853
0.0567179
0.0484961
0.0422722
0.0372441
0.0330438
0.0294704
0.0263965
0.0237329
0.0214125
0.019383
0.0176023
0.0160357
0.014654
0.0134325
0.0123499
0.0113877
0.0105302
0.00976373
0.00907652
0.00845851
0.00790101
0.00739656
0.00693872
0.00652191
0.00614132
0.00579275
0.00547254
0.00517748
0.00490479
0.00465201
0.00441697
0.00419782
0.00399292
0.0038009
0.00362063
0.00345125
0.00329221
0.00314331
0.00300481
0.00287753
0.00276286
0.00266307
0.0025813
0.00252148
0.00248847
0.724726
0.286666
0.145071
0.0935674
0.0708825
0.0583255
0.0499001
0.0435169
0.0383565
0.0340419
0.0303668
0.0272005
0.024451
0.0220499
0.0199441
0.0180911
0.0164563
0.0150106
0.0137295
0.0125917
0.0115791
0.0106755
0.00986722
0.00914222
0.00849004
0.00790168
0.0073693
0.00688613
0.0064463
0.00604469
0.00567686
0.00533893
0.00502751
0.00473963
0.0044727
0.00422445
0.00399292
0.00377641
0.00357352
0.00338309
0.00320431
0.00303667
0.00288013
0.00273512
0.00260266
0.00248431
0.00238238
0.00229981
0.00224009
0.00220741
0.742853
0.293349
0.148482
0.0958791
0.0727124
0.0598761
0.0512543
0.0447181
0.0394315
0.0350088
0.0312382
0.0279854
0.025156
0.02268
0.0205032
0.0185827
0.0168835
0.0153767
0.014038
0.0128464
0.0117837
0.0108342
0.00998398
0.00922078
0.00853398
0.00791428
0.00735356
0.00684474
0.00638165
0.0059589
0.0055718
0.00521624
0.00488864
0.00458587
0.00430518
0.00404421
0.0038009
0.00357352
0.00336063
0.00316113
0.00297426
0.00279966
0.00263747
0.00248832
0.00235342
0.00223442
0.00213343
0.00205289
0.00199547
0.00196437
0.760172
0.299729
0.151745
0.0980942
0.0744666
0.0613622
0.052552
0.0458695
0.0404629
0.0359381
0.0320782
0.028745
0.0258419
0.0232969
0.0210547
0.0190716
0.0173124
0.0157483
0.0143549
0.0131115
0.0120003
0.0110055
0.0101134
0.00931189
0.00859013
0.00793867
0.00734916
0.00681428
0.00632759
0.00588346
0.00547695
0.00510374
0.00476004
0.00444256
0.00414843
0.00387516
0.00362063
0.00338309
0.00316113
0.0029537
0.0027602
0.00258047
0.00241484
0.00226419
0.0021298
0.00201326
0.0019162
0.00184023
0.00178697
0.00175842
0.776609
0.30578
0.154845
0.100202
0.0761364
0.0627762
0.0537862
0.0469645
0.0414443
0.0368236
0.0328804
0.029473
0.0265021
0.023894
0.0215922
0.019552
0.0177379
0.0161207
0.0146762
0.0133839
0.0122261
0.0111875
0.0102544
0.00941486
0.0086581
0.00797462
0.00735592
0.00679455
0.00628388
0.00581804
0.00539188
0.00500088
0.00464106
0.00430898
0.00400163
0.00371644
0.00345125
0.00320431
0.00297426
0.0027602
0.00256173
0.00237891
0.00221234
0.00206302
0.00193218
0.00182103
0.00173046
0.00166101
0.00161315
0.00158776
0.792084
0.311473
0.157767
0.102191
0.0777126
0.0641102
0.0549497
0.0479964
0.0423694
0.037659
0.0336385
0.0301628
0.0271301
0.0244649
0.0221092
0.0200177
0.018154
0.0164886
0.0149973
0.0136596
0.0124581
0.0113776
0.0104049
0.00952819
0.00873683
0.0080214
0.00737341
0.0067853
0.0062503
0.00576239
0.00531628
0.00490728
0.00453125
0.0041846
0.00386423
0.00356749
0.00329221
0.00303667
0.00279966
0.00258047
0.00237891
0.00219534
0.00203051
0.0018854
0.00176092
0.00165757
0.00157527
0.00151346
0.00147153
0.00144948
0.806507
0.316777
0.160493
0.10405
0.0791849
0.0653553
0.0560349
0.0489583
0.0432315
0.038438
0.0343463
0.0308081
0.0277194
0.0250028
0.0225992
0.0204619
0.0185541
0.0168458
0.0153125
0.0139336
0.0126919
0.0115725
0.0105623
0.0096499
0.00882486
0.00807795
0.0074008
0.00678585
0.00622633
0.00571615
0.00524988
0.0048227
0.00443036
0.00406915
0.00373593
0.00342804
0.00314331
0.00288013
0.00263747
0.00241484
0.00221234
0.00203051
0.00187011
0.00173184
0.00161594
0.00152196
0.00144876
0.00139479
0.00135866
0.00133976
0.819781
0.321655
0.163003
0.105763
0.0805423
0.0665025
0.0570337
0.0498428
0.044024
0.0391541
0.0349974
0.0314027
0.0282636
0.0255014
0.0230553
0.0208779
0.0189315
0.0171856
0.0156153
0.0142
0.0129224
0.0117676
0.0107229
0.00977702
0.00891993
0.00814261
0.00743691
0.00679542
0.00621143
0.00567888
0.00519231
0.00474684
0.00433818
0.00396256
0.0036168
0.00329824
0.00300481
0.00273512
0.00248832
0.00226419
0.00206302
0.0018854
0.00173184
0.0016024
0.0014964
0.00141232
0.00134808
0.00130141
0.00127048
0.00125435
0.831791
0.326067
0.165276
0.107316
0.0817723
0.0675409
0.0579369
0.050642
0.0447396
0.0398005
0.0355853
0.03194
0.0287564
0.0259539
0.0234708
0.0212588
0.0192792
0.017501
0.015899
0.0144522
0.0131433
0.0119573
0.0108817
0.00990545
0.00901873
0.00821283
0.00747987
0.00681268
0.00620473
0.00565007
0.00514334
0.00467969
0.00425483
0.00386504
0.00350715
0.00317862
0.00287753
0.00260266
0.00235342
0.0021298
0.00193218
0.00176092
0.00161594
0.0014964
0.00140056
0.00132595
0.00126979
0.00122946
0.00120291
0.00118907
0.8424
0.329963
0.167286
0.108689
0.08286
0.0684585
0.0587341
0.0513466
0.0453699
0.0403697
0.0361029
0.0324133
0.0291909
0.0263538
0.0238391
0.0215976
0.01959
0.0177848
0.0161563
0.0146831
0.0133477
0.0121352
0.0110329
0.01003
0.00911685
0.00828501
0.00752689
0.00683559
0.00620486
0.00562895
0.00510268
0.00462135
0.00418078
0.00377735
0.00340803
0.00307043
0.00276286
0.00248431
0.00223442
0.00201326
0.00182103
0.00165757
0.00152196
0.00141232
0.00132595
0.00125967
0.00121033
0.00117519
0.00115218
0.0011402
0.85144
0.333282
0.168999
0.109861
0.0837876
0.0692404
0.0594128
0.0519459
0.0459056
0.040853
0.0365424
0.0328153
0.0295601
0.0266939
0.024153
0.0218872
0.0198568
0.0180296
0.0163796
0.0148851
0.0135282
0.0122939
0.0111696
0.0101444
0.00920876
0.00835448
0.0075742
0.00686132
0.00620987
0.00561441
0.00506999
0.00457214
0.00411691
0.00370087
0.0033212
0.00297575
0.00266307
0.00238238
0.00213343
0.0019162
0.00173046
0.00157527
0.00144876
0.00134808
0.00126979
0.00121033
0.00116643
0.00113538
0.00111517
0.00110464
0.858708
0.335949
0.170376
0.110804
0.0845339
0.069869
0.059958
0.0524269
0.0463352
0.0412405
0.0368944
0.0331372
0.0298559
0.0269666
0.0244048
0.02212
0.0200717
0.0182276
0.0165609
0.01505
0.0136766
0.0124257
0.0112842
0.0102415
0.00928794
0.00841553
0.00761708
0.00688622
0.00621724
0.00560501
0.00504487
0.00453265
0.00406466
0.00363774
0.00324935
0.00289761
0.0025813
0.00229981
0.00205289
0.00184023
0.00166101
0.00151346
0.00139479
0.00130141
0.00122946
0.00117519
0.00113538
0.00110742
0.00108936
0.00108
0.863969
0.337879
0.171373
0.111486
0.0850737
0.0703235
0.0603519
0.0527741
0.0466451
0.0415196
0.0371478
0.0333686
0.0300683
0.0271623
0.0245855
0.022287
0.0202261
0.0183699
0.0166917
0.0151693
0.0137845
0.0125218
0.0113684
0.0103134
0.00934718
0.0084618
0.00765017
0.00690609
0.00622408
0.00559922
0.00502714
0.00450394
0.0040262
0.00359104
0.00319619
0.00284001
0.00252148
0.00224009
0.00199547
0.00178697
0.00161315
0.00147153
0.00135866
0.00127048
0.00120291
0.00115218
0.00111517
0.00108936
0.00107289
0.00106444
0.866938
0.338966
0.171933
0.111868
0.0853761
0.070578
0.0605721
0.0529678
0.0468174
0.0416742
0.0372876
0.0334958
0.0301845
0.0272689
0.0246836
0.0223774
0.0203094
0.0184465
0.0167619
0.0152333
0.0138424
0.0125735
0.0114138
0.0103522
0.00937931
0.00848698
0.00766824
0.00691697
0.00622779
0.00559594
0.00501721
0.00448785
0.00400464
0.0035649
0.00316651
0.002808
0.00248847
0.00220741
0.00196437
0.00175842
0.00158776
0.00144948
0.00133976
0.00125435
0.00118907
0.0011402
0.00110464
0.00108
0.00106444
0.00105662
)
;

boundaryField
{
    bottomWall
    {
        lowReCorrection 0;
        type            epsilonWallFunction;
        value           nonuniform List<scalar> 
50
(
0.012031
0.0133107
0.0164455
0.0217404
0.0293772
0.0394079
0.0517592
0.0662621
0.0826879
0.100778
0.120265
0.140892
0.162422
0.184646
0.207388
0.230505
0.253885
0.277441
0.301108
0.324835
0.348583
0.372319
0.396015
0.419645
0.443182
0.466599
0.489865
0.512951
0.53582
0.558436
0.580759
0.602745
0.624348
0.645516
0.666197
0.686333
0.705864
0.724726
0.742853
0.760172
0.776609
0.792084
0.806507
0.819781
0.831791
0.8424
0.85144
0.858708
0.863969
0.866938
)
;
    }
    leftWall
    {
        lowReCorrection 0;
        type            epsilonWallFunction;
        value           nonuniform List<scalar> 
50
(
0.012031
0.0133107
0.0164455
0.0217404
0.0293772
0.0394079
0.0517592
0.0662621
0.0826879
0.100778
0.120265
0.140892
0.162422
0.184646
0.207388
0.230505
0.253885
0.277441
0.301108
0.324835
0.348583
0.372319
0.396015
0.419645
0.443182
0.466599
0.489865
0.512951
0.53582
0.558436
0.580759
0.602745
0.624348
0.645516
0.666197
0.686333
0.705864
0.724726
0.742853
0.760172
0.776609
0.792084
0.806507
0.819781
0.831791
0.8424
0.85144
0.858708
0.863969
0.866938
)
;
    }
    topSym
    {
        type            symmetryPlane;
    }
    rightSym
    {
        type            symmetryPlane;
    }
    inlet
    {
        type            cyclic;
    }
    outlet
    {
        type            cyclic;
    }
}


// ************************************************************************* //
