/*--------------------------------*- C++ -*----------------------------------*\
| =========                 |                                                 |
| \\      /  F ield         | OpenFOAM: The Open Source CFD Toolbox           |
|  \\    /   O peration     | Version:  v1912                                 |
|   \\  /    A nd           | Website:  www.openfoam.com                      |
|    \\/     M anipulation  |                                                 |
\*---------------------------------------------------------------------------*/
FoamFile
{
    version     2.0;
    format      ascii;
    class       volVectorField;
    location    "1000";
    object      U;
}
// * * * * * * * * * * * * * * * * * * * * * * * * * * * * * * * * * * * * * //

dimensions      [0 1 -1 0 0 0 0];


internalField   nonuniform List<vector> 
2500
(
(0.00100104 -1.93006e-08 -1.93007e-08)
(0.00246032 -1.68985e-08 -5.9358e-08)
(0.0038945 -2.27735e-07 -1.47722e-07)
(0.00534653 -7.5519e-07 -2.75177e-07)
(0.00683583 -1.78035e-06 -4.72598e-07)
(0.00836685 -3.3755e-06 -8.06345e-07)
(0.00993442 -5.32648e-06 -1.35617e-06)
(0.011528 -7.1104e-06 -2.17869e-06)
(0.013135 -8.04081e-06 -3.28103e-06)
(0.0147425 -7.48655e-06 -4.62941e-06)
(0.0163387 -5.03432e-06 -6.17182e-06)
(0.0179138 -5.4992e-07 -7.85742e-06)
(0.0194601 5.84586e-06 -9.64736e-06)
(0.0209719 1.38512e-05 -1.15176e-05)
(0.0224457 2.30704e-05 -1.34566e-05)
(0.0238799 3.30897e-05 -1.54608e-05)
(0.0252738 4.35303e-05 -1.75309e-05)
(0.0266281 5.40774e-05 -1.96686e-05)
(0.0279439 6.44912e-05 -2.1875e-05)
(0.0292227 7.46043e-05 -2.41495e-05)
(0.030466 8.43115e-05 -2.64899e-05)
(0.0316756 9.35571e-05 -2.88925e-05)
(0.0328527 0.000102321 -3.13521e-05)
(0.0339987 0.000110606 -3.38627e-05)
(0.0351147 0.000118428 -3.64175e-05)
(0.0362013 0.000125806 -3.90094e-05)
(0.0372592 0.000132758 -4.16307e-05)
(0.0382887 0.000139292 -4.42737e-05)
(0.03929 0.000145404 -4.69304e-05)
(0.040263 0.000151074 -4.95925e-05)
(0.0412074 0.000156264 -5.22517e-05)
(0.0421229 0.000160917 -5.48994e-05)
(0.0430088 0.000164952 -5.75266e-05)
(0.0438645 0.000168266 -6.01243e-05)
(0.0446891 0.000170732 -6.2683e-05)
(0.0454815 0.000172203 -6.5193e-05)
(0.0462407 0.000172512 -6.76445e-05)
(0.0469653 0.000171485 -7.00271e-05)
(0.047654 0.000168929 -7.23305e-05)
(0.0483052 0.000164654 -7.45437e-05)
(0.0489173 0.000158483 -7.66556e-05)
(0.0494884 0.000150266 -7.86546e-05)
(0.0500164 0.000139902 -8.05282e-05)
(0.0504986 0.000127348 -8.22623e-05)
(0.050932 0.000112637 -8.3841e-05)
(0.0513126 9.58596e-05 -8.52445e-05)
(0.0516353 7.71679e-05 -8.64486e-05)
(0.0518937 5.67036e-05 -8.74242e-05)
(0.0520803 3.4683e-05 -8.81408e-05)
(0.0521857 1.16632e-05 -8.84692e-05)
(0.00246032 -5.93577e-08 -1.68988e-08)
(0.00628921 1.92142e-07 1.92141e-07)
(0.0101232 5.43679e-08 5.73584e-07)
(0.0140012 -6.27112e-07 1.15364e-06)
(0.0179304 -2.12949e-06 1.80668e-06)
(0.0219047 -4.52706e-06 2.20881e-06)
(0.0259094 -7.31634e-06 1.98426e-06)
(0.0299232 -9.37942e-06 9.12294e-07)
(0.033922 -9.30213e-06 -9.50967e-07)
(0.0378816 -5.82668e-06 -3.33581e-06)
(0.0417798 1.83133e-06 -5.90211e-06)
(0.0455984 1.3875e-05 -8.35766e-06)
(0.0493235 2.99858e-05 -1.05168e-05)
(0.0529459 4.94788e-05 -1.23065e-05)
(0.0564606 7.14832e-05 -1.37405e-05)
(0.0598659 9.50978e-05 -1.48837e-05)
(0.0631631 0.000119501 -1.58212e-05)
(0.0663551 0.00014401 -1.66364e-05)
(0.0694462 0.000168108 -1.73988e-05)
(0.0724409 0.000191432 -1.81601e-05)
(0.0753441 0.000213756 -1.89538e-05)
(0.0781603 0.00023496 -1.97985e-05)
(0.0808937 0.000255004 -2.07008e-05)
(0.0835478 0.000273899 -2.16593e-05)
(0.0861257 0.000291682 -2.26671e-05)
(0.0886296 0.0003084 -2.37143e-05)
(0.0910615 0.000324092 -2.47894e-05)
(0.0934225 0.000338779 -2.58806e-05)
(0.0957135 0.000352454 -2.69764e-05)
(0.0979347 0.000365073 -2.8066e-05)
(0.100086 0.000376552 -2.91395e-05)
(0.102167 0.000386759 -3.0188e-05)
(0.104176 0.000395511 -3.12038e-05)
(0.106113 0.000402572 -3.21802e-05)
(0.107976 0.000407655 -3.31119e-05)
(0.109762 0.000410416 -3.39949e-05)
(0.111471 0.000410478 -3.48271e-05)
(0.113098 0.000407433 -3.56066e-05)
(0.114642 0.00040084 -3.6333e-05)
(0.1161 0.000390257 -3.70078e-05)
(0.117467 0.000375272 -3.76343e-05)
(0.118742 0.000355539 -3.82167e-05)
(0.119918 0.000330816 -3.87595e-05)
(0.120991 0.000300998 -3.92668e-05)
(0.121954 0.000266151 -3.97402e-05)
(0.122799 0.000226478 -4.01772e-05)
(0.123515 0.000182324 -4.05694e-05)
(0.124087 0.000134017 -4.09057e-05)
(0.124501 8.20583e-05 -4.11906e-05)
(0.124735 2.76317e-05 -4.12681e-05)
(0.0038945 -1.47722e-07 -2.27735e-07)
(0.0101232 5.73585e-07 5.43674e-08)
(0.0164641 8.09811e-07 8.0981e-07)
(0.0229322 4.88669e-07 1.99714e-06)
(0.0295057 -5.90668e-07 3.28767e-06)
(0.0361492 -2.39686e-06 3.87983e-06)
(0.0428226 -4.13553e-06 2.90027e-06)
(0.0494851 -4.20777e-06 -6.91035e-08)
(0.0560974 -6.93904e-07 -4.76462e-06)
(0.0626227 8.01182e-06 -1.04447e-05)
(0.0690291 2.28197e-05 -1.6244e-05)
(0.0752907 4.38557e-05 -2.14466e-05)
(0.0813885 7.0571e-05 -2.56138e-05)
(0.0873102 0.000101956 -2.85888e-05)
(0.0930499 0.000136773 -3.0429e-05)
(0.0986063 0.000173758 -3.13177e-05)
(0.103982 0.000211759 -3.14867e-05)
(0.109183 0.000249817 -3.11623e-05)
(0.114216 0.000287197 -3.05356e-05)
(0.119088 0.000323376 -2.97515e-05)
(0.123808 0.000358024 -2.89093e-05)
(0.128382 0.000390962 -2.80688e-05)
(0.132818 0.00042212 -2.72603e-05)
(0.137121 0.000451504 -2.64924e-05)
(0.141296 0.000479162 -2.57597e-05)
(0.145347 0.000505153 -2.50491e-05)
(0.149277 0.000529529 -2.43434e-05)
(0.153088 0.000552313 -2.36244e-05)
(0.156781 0.000573487 -2.28749e-05)
(0.160357 0.000592979 -2.20797e-05)
(0.163815 0.000610651 -2.12263e-05)
(0.167156 0.000626295 -2.03049e-05)
(0.170378 0.000639624 -1.93094e-05)
(0.173478 0.000650267 -1.82367e-05)
(0.176455 0.00065777 -1.70873e-05)
(0.179306 0.000661594 -1.58665e-05)
(0.182029 0.00066114 -1.45844e-05)
(0.184618 0.00065576 -1.32526e-05)
(0.187071 0.000644757 -1.18872e-05)
(0.189383 0.000627428 -1.05097e-05)
(0.19155 0.000603115 -9.1467e-06)
(0.193565 0.00057126 -7.8283e-06)
(0.195423 0.00053147 -6.58692e-06)
(0.197116 0.000483561 -5.45469e-06)
(0.198634 0.000427618 -4.46009e-06)
(0.199965 0.000363949 -3.62387e-06)
(0.201091 0.000293082 -2.95642e-06)
(0.201992 0.000215545 -2.46722e-06)
(0.202642 0.000132127 -2.20965e-06)
(0.20301 4.45488e-05 -2.13466e-06)
(0.00534653 -2.75177e-07 -7.5519e-07)
(0.0140012 1.15364e-06 -6.27112e-07)
(0.0229322 1.99714e-06 4.88669e-07)
(0.0320929 2.25425e-06 2.25425e-06)
(0.0414129 1.93343e-06 4.04435e-06)
(0.0508188 1.42849e-06 4.54664e-06)
(0.0602387 2.04039e-06 2.30061e-06)
(0.0696084 5.84684e-06 -3.23929e-06)
(0.0788722 1.50302e-05 -1.13547e-05)
(0.0879834 3.1165e-05 -2.05851e-05)
(0.096904 5.49265e-05 -2.93947e-05)
(0.105605 8.61257e-05 -3.66018e-05)
(0.114065 0.000123899 -4.1544e-05)
(0.122273 0.000166954 -4.40505e-05)
(0.130223 0.000213817 -4.43093e-05)
(0.137916 0.000263018 -4.27132e-05)
(0.145357 0.000313234 -3.97264e-05)
(0.152553 0.000363358 -3.57943e-05)
(0.159514 0.000412534 -3.12934e-05)
(0.16625 0.000460146 -2.65126e-05)
(0.172772 0.000505792 -2.16554e-05)
(0.17909 0.000549244 -1.68513e-05)
(0.185211 0.000590405 -1.21724e-05)
(0.191145 0.000629265 -7.64917e-06)
(0.196896 0.000665866 -3.28427e-06)
(0.202471 0.000700266 9.36629e-07)
(0.207872 0.000732516 5.0369e-06)
(0.213104 0.000762631 9.04342e-06)
(0.218168 0.000790574 1.29829e-05)
(0.223064 0.00081624 1.68797e-05)
(0.227792 0.00083944 2.07544e-05)
(0.232352 0.000859892 2.4623e-05)
(0.236743 0.000877212 2.84965e-05)
(0.240962 0.000890902 3.23805e-05)
(0.245006 0.000900355 3.62745e-05)
(0.248872 0.00090485 4.01704e-05)
(0.252556 0.000903583 4.40505e-05)
(0.256055 0.000895677 4.78949e-05)
(0.259363 0.000880197 5.16782e-05)
(0.262476 0.000856191 5.53632e-05)
(0.265387 0.00082277 5.89043e-05)
(0.268092 0.000779169 6.2249e-05)
(0.270581 0.00072484 6.53409e-05)
(0.272846 0.000659519 6.81238e-05)
(0.274873 0.000583292 7.05489e-05)
(0.276649 0.000496553 7.25813e-05)
(0.27815 0.000399993 7.42062e-05)
(0.27935 0.00029433 7.54089e-05)
(0.280215 0.000180618 7.60963e-05)
(0.280707 6.09712e-05 7.61859e-05)
(0.00683583 -4.72597e-07 -1.78035e-06)
(0.0179304 1.80668e-06 -2.12949e-06)
(0.0295057 3.28767e-06 -5.90667e-07)
(0.0414129 4.04435e-06 1.93343e-06)
(0.0534908 4.16578e-06 4.16578e-06)
(0.0656127 4.41897e-06 4.2718e-06)
(0.0776794 7.05035e-06 3.66806e-07)
(0.0896123 1.50058e-05 -8.03765e-06)
(0.10135 3.06349e-05 -1.95766e-05)
(0.112845 5.50603e-05 -3.19961e-05)
(0.124064 8.83086e-05 -4.3153e-05)
(0.13498 0.000129627 -5.15285e-05)
(0.145579 0.000177764 -5.63625e-05)
(0.155854 0.000231206 -5.75664e-05)
(0.165801 0.000288371 -5.55229e-05)
(0.175426 0.000347749 -5.08742e-05)
(0.184736 0.000407996 -4.43431e-05)
(0.193741 0.000467987 -3.66138e-05)
(0.202453 0.000526838 -2.82642e-05)
(0.210883 0.000583896 -1.97401e-05)
(0.219044 0.00063872 -1.13579e-05)
(0.226946 0.000691041 -3.32041e-06)
(0.2346 0.000740727 4.25953e-06)
(0.242015 0.000787738 1.13361e-05)
(0.249196 0.000832091 1.79099e-05)
(0.256151 0.000873823 2.40117e-05)
(0.262884 0.000912965 2.9689e-05)
(0.269397 0.000949511 3.49981e-05)
(0.275694 0.000983396 3.99971e-05)
(0.281774 0.00101448 4.47423e-05)
(0.287638 0.00104252 4.92855e-05)
(0.293285 0.00106717 5.36725e-05)
(0.298713 0.00108796 5.7942e-05)
(0.303919 0.00110428 6.21246e-05)
(0.308902 0.0011154 6.62421e-05)
(0.313657 0.00112043 7.03039e-05)
(0.318179 0.0011184 7.43035e-05)
(0.322466 0.00110823 7.82323e-05)
(0.326512 0.00108877 8.20717e-05)
(0.330312 0.00105886 8.57852e-05)
(0.33386 0.00101741 8.93217e-05)
(0.337149 0.000963456 9.26192e-05)
(0.340172 0.00089632 9.56091e-05)
(0.342917 0.00081565 9.82244e-05)
(0.345372 0.000721524 0.000100411)
(0.347518 0.000614398 0.000102142)
(0.349331 0.000495099 0.000103423)
(0.350779 0.000364511 0.000104271)
(0.351824 0.000223913 0.000104587)
(0.352419 7.56674e-05 0.000104305)
(0.00836685 -8.06345e-07 -3.3755e-06)
(0.0219047 2.20881e-06 -4.52706e-06)
(0.0361492 3.87983e-06 -2.39686e-06)
(0.0508188 4.54664e-06 1.42849e-06)
(0.0656127 4.2718e-06 4.41897e-06)
(0.0803233 3.47258e-06 3.47258e-06)
(0.0948261 5.1742e-06 -3.83659e-06)
(0.109047 1.3963e-05 -1.7466e-05)
(0.122941 3.30203e-05 -3.48666e-05)
(0.136477 6.31063e-05 -5.27679e-05)
(0.14964 0.000103439 -6.84732e-05)
(0.16242 0.000152558 -8.02615e-05)
(0.174814 0.000208756 -8.73731e-05)
(0.186824 0.000270297 -8.98339e-05)
(0.198456 0.000335532 -8.82023e-05)
(0.209717 0.000402963 -8.3323e-05)
(0.220619 0.000471279 -7.6124e-05)
(0.231174 0.000539381 -6.74809e-05)
(0.241393 0.000606381 -5.8137e-05)
(0.251289 0.000671604 -4.86718e-05)
(0.260873 0.000734561 -3.95011e-05)
(0.270158 0.000794928 -3.08943e-05)
(0.279153 0.000852512 -2.30013e-05)
(0.287865 0.000907214 -1.58808e-05)
(0.296303 0.000958998 -9.52559e-06)
(0.304471 0.00100785 -3.8844e-06)
(0.312373 0.00105377 1.12091e-06)
(0.320013 0.00109669 5.58272e-06)
(0.327392 0.00113653 9.59854e-06)
(0.334511 0.00117308 1.32647e-05)
(0.341368 0.00120607 1.66719e-05)
(0.347964 0.00123507 1.99027e-05)
(0.354295 0.00125956 2.3029e-05)
(0.36036 0.00127882 2.61107e-05)
(0.366154 0.00129202 2.91937e-05)
(0.371675 0.00129814 3.23059e-05)
(0.376917 0.00129606 3.54507e-05)
(0.381877 0.00128453 3.86257e-05)
(0.386551 0.00126224 4.18113e-05)
(0.390932 0.00122784 4.49619e-05)
(0.395015 0.00118007 4.80091e-05)
(0.398795 0.0011178 5.08673e-05)
(0.402262 0.00104024 5.34406e-05)
(0.405406 0.00094695 5.56349e-05)
(0.408213 0.000837993 5.73769e-05)
(0.410664 0.000713873 5.8632e-05)
(0.412733 0.000575521 5.94229e-05)
(0.414384 0.000423973 5.97858e-05)
(0.415574 0.000260693 5.96181e-05)
(0.416254 8.81834e-05 5.90338e-05)
(0.00993442 -1.35617e-06 -5.32648e-06)
(0.0259094 1.98426e-06 -7.31634e-06)
(0.0428226 2.90027e-06 -4.13553e-06)
(0.0602387 2.30061e-06 2.04039e-06)
(0.0776794 3.66805e-07 7.05036e-06)
(0.0948261 -3.8366e-06 5.1742e-06)
(0.111526 -7.56024e-06 -7.56024e-06)
(0.127726 -4.20589e-06 -3.01103e-05)
(0.14342 1.14559e-05 -5.75216e-05)
(0.158619 4.07748e-05 -8.45955e-05)
(0.173338 8.26194e-05 -0.000107785)
(0.187596 0.000134948 -0.000125251)
(0.201412 0.000195547 -0.000136425)
(0.214802 0.000262332 -0.000141608)
(0.227782 0.000333455 -0.000141626)
(0.240366 0.000407313 -0.000137561)
(0.252569 0.000482542 -0.000130543)
(0.264404 0.000557995 -0.000121624)
(0.275883 0.000632733 -0.000111693)
(0.287017 0.000706007 -0.00010145)
(0.297816 0.000777243 -9.14083e-05)
(0.30829 0.000846021 -8.19097e-05)
(0.318446 0.00091205 -7.31555e-05)
(0.328291 0.000975137 -6.5236e-05)
(0.33783 0.00103516 -5.81589e-05)
(0.347066 0.00109202 -5.18749e-05)
(0.356003 0.00114564 -4.62967e-05)
(0.364642 0.00119591 -4.13157e-05)
(0.372983 0.00124268 -3.6813e-05)
(0.381025 0.00128569 -3.26683e-05)
(0.388767 0.00132461 -2.87663e-05)
(0.396207 0.00135897 -2.50008e-05)
(0.403342 0.00138816 -2.12788e-05)
(0.410169 0.0014114 -1.75228e-05)
(0.416683 0.00142776 -1.36744e-05)
(0.422881 0.00143613 -9.69929e-06)
(0.428758 0.00143526 -5.59473e-06)
(0.43431 0.00142376 -1.3727e-06)
(0.439533 0.0014002 2.93204e-06)
(0.444421 0.00136306 7.24916e-06)
(0.448969 0.00131095 1.14765e-05)
(0.453172 0.00124261 1.54864e-05)
(0.457021 0.00115714 1.91365e-05)
(0.460507 0.00105402 2.2286e-05)
(0.463615 0.000933314 2.48222e-05)
(0.466325 0.000795547 2.66847e-05)
(0.468609 0.000641743 2.78918e-05)
(0.470431 0.000473074 2.8482e-05)
(0.471745 0.000291165 2.83262e-05)
(0.472496 9.8582e-05 2.77504e-05)
(0.011528 -2.17869e-06 -7.1104e-06)
(0.0299232 9.12294e-07 -9.37942e-06)
(0.0494851 -6.91038e-08 -4.20776e-06)
(0.0696084 -3.23929e-06 5.84684e-06)
(0.0896123 -8.03765e-06 1.50058e-05)
(0.109047 -1.7466e-05 1.3963e-05)
(0.127726 -3.01103e-05 -4.20589e-06)
(0.14563 -3.77043e-05 -3.77043e-05)
(0.162807 -3.24298e-05 -7.82187e-05)
(0.179327 -1.13517e-05 -0.000117437)
(0.195254 2.49838e-05 -0.000150228)
(0.210642 7.4534e-05 -0.000174448)
(0.225539 0.000134782 -0.000189867)
(0.239981 0.000203242 -0.000197313)
(0.253998 0.000277696 -0.000198106)
(0.267613 0.000356247 -0.000193729)
(0.280845 0.000437304 -0.000185622)
(0.293709 0.00051954 -0.000175062)
(0.306217 0.000601859 -0.000163114)
(0.318379 0.000683368 -0.000150607)
(0.330201 0.000763351 -0.000138154)
(0.341691 0.000841246 -0.000126169)
(0.352853 0.000916625 -0.00011491)
(0.363689 0.000989163 -0.000104505)
(0.374202 0.00105861 -9.49888e-05)
(0.384392 0.00112477 -8.63253e-05)
(0.394258 0.00118747 -7.84332e-05)
(0.4038 0.00124649 -7.12017e-05)
(0.413015 0.00130162 -6.45039e-05)
(0.421901 0.00135253 -5.82073e-05)
(0.430453 0.00139882 -5.21815e-05)
(0.438669 0.00143995 -4.63043e-05)
(0.446542 0.00147526 -4.04667e-05)
(0.45407 0.0015039 -3.45778e-05)
(0.461247 0.00152486 -2.85689e-05)
(0.468068 0.00153695 -2.24008e-05)
(0.474528 0.0015388 -1.60726e-05)
(0.480623 0.00152894 -9.60814e-06)
(0.486348 0.00150579 -3.05883e-06)
(0.491699 0.00146776 3.47831e-06)
(0.49667 0.00141329 9.86393e-06)
(0.501256 0.00134106 1.59243e-05)
(0.50545 0.00125004 2.14654e-05)
(0.509243 0.00113968 2.62941e-05)
(0.512619 0.00101001 3.02531e-05)
(0.51556 0.000861592 3.32521e-05)
(0.518036 0.000695525 3.5302e-05)
(0.520009 0.000513106 3.64422e-05)
(0.521432 0.000316108 3.65184e-05)
(0.522246 0.000107119 3.60015e-05)
(0.013135 -3.28103e-06 -8.04081e-06)
(0.033922 -9.50968e-07 -9.30213e-06)
(0.0560974 -4.76462e-06 -6.93903e-07)
(0.0788722 -1.13547e-05 1.50302e-05)
(0.10135 -1.95766e-05 3.06349e-05)
(0.122941 -3.48666e-05 3.30203e-05)
(0.14342 -5.75216e-05 1.14559e-05)
(0.162807 -7.82187e-05 -3.24298e-05)
(0.18122 -8.71993e-05 -8.71993e-05)
(0.198795 -7.98421e-05 -0.000140847)
(0.215653 -5.53093e-05 -0.000185766)
(0.231895 -1.47506e-05 -0.000218831)
(0.247597 3.96244e-05 -0.00023986)
(0.26282 0.000105207 -0.000250198)
(0.277612 0.000179436 -0.000251806)
(0.292005 0.000260012 -0.000246741)
(0.306027 0.000344966 -0.000236902)
(0.319696 0.000432646 -0.000223917)
(0.333025 0.000521682 -0.000209105)
(0.346022 0.000610949 -0.000193478)
(0.358694 0.000699525 -0.00017778)
(0.371042 0.000786664 -0.000162514)
(0.383068 0.000871766 -0.000147998)
(0.39477 0.000954346 -0.000134397)
(0.406145 0.00103401 -0.000121768)
(0.417191 0.00111042 -0.000110086)
(0.427902 0.00118327 -9.92736e-05)
(0.438272 0.00125225 -8.92158e-05)
(0.448297 0.00131702 -7.97783e-05)
(0.457969 0.00137718 -7.08175e-05)
(0.467281 0.00143225 -6.21893e-05)
(0.476228 0.0014816 -5.37562e-05)
(0.484802 0.0015245 -4.53939e-05)
(0.492996 0.00156002 -3.69969e-05)
(0.500803 0.00158707 -2.8485e-05)
(0.508218 0.0016044 -1.98114e-05)
(0.515235 0.00161055 -1.09742e-05)
(0.521847 0.00160394 -2.00759e-06)
(0.528051 0.00158291 7.02224e-06)
(0.533841 0.00154575 1.59929e-05)
(0.539213 0.00149082 2.47281e-05)
(0.544162 0.0014167 3.3007e-05)
(0.548682 0.00132229 4.05818e-05)
(0.552762 0.00120698 4.72049e-05)
(0.55639 0.0010708 5.26725e-05)
(0.559546 0.000914324 5.68638e-05)
(0.5622 0.000738731 5.9785e-05)
(0.564313 0.000545438 6.14806e-05)
(0.565836 0.000336351 6.17832e-05)
(0.566709 0.000114071 6.12542e-05)
(0.0147425 -4.62941e-06 -7.48655e-06)
(0.0378816 -3.33581e-06 -5.82668e-06)
(0.0626227 -1.04447e-05 8.01182e-06)
(0.0879834 -2.05851e-05 3.1165e-05)
(0.112845 -3.19961e-05 5.50603e-05)
(0.136477 -5.27679e-05 6.31063e-05)
(0.158619 -8.45955e-05 4.07748e-05)
(0.179327 -0.000117437 -1.13517e-05)
(0.198795 -0.000140847 -7.98421e-05)
(0.217233 -0.000149361 -0.000149361)
(0.234824 -0.000140626 -0.000209305)
(0.251715 -0.000114174 -0.000254692)
(0.268017 -7.10999e-05 -0.000284646)
(0.283816 -1.353e-05 -0.000300621)
(0.299178 5.59693e-05 -0.000305079)
(0.314148 0.000134817 -0.000300693)
(0.328762 0.000220642 -0.000289941)
(0.343045 0.000311377 -0.000274936)
(0.357012 0.000405273 -0.000257375)
(0.370673 0.000500875 -0.00023856)
(0.384033 0.000596983 -0.00021944)
(0.397093 0.000692614 -0.000200666)
(0.409849 0.000786963 -0.000182651)
(0.422298 0.000879361 -0.000165621)
(0.434432 0.000969249 -0.000149664)
(0.446242 0.00105614 -0.000134769)
(0.457718 0.00113958 -0.000120858)
(0.468852 0.00121913 -0.000107808)
(0.47963 0.00129434 -9.54729e-05)
(0.490042 0.00136469 -8.36937e-05)
(0.500078 0.00142958 -7.23102e-05)
(0.509726 0.00148831 -6.11687e-05)
(0.518975 0.00154003 -5.01288e-05)
(0.527815 0.00158374 -3.90711e-05)
(0.536238 0.00161828 -2.79038e-05)
(0.544234 0.00164228 -1.6573e-05)
(0.551796 0.0016542 -5.07488e-06)
(0.558917 0.00165238 6.54495e-06)
(0.565591 0.00163505 1.82042e-05)
(0.571813 0.00160043 2.97538e-05)
(0.577579 0.00154679 4.09785e-05)
(0.582883 0.00147261 5.16069e-05)
(0.58772 0.00137674 6.13335e-05)
(0.592081 0.00125853 6.98512e-05)
(0.595953 0.00111798 7.69057e-05)
(0.599317 0.000955699 8.2343e-05)
(0.602143 0.000772938 8.61642e-05)
(0.604391 0.000571227 8.84224e-05)
(0.606011 0.000352601 8.89467e-05)
(0.60694 0.000119672 8.83819e-05)
(0.0163387 -6.17182e-06 -5.03432e-06)
(0.0417798 -5.90211e-06 1.83133e-06)
(0.0690291 -1.6244e-05 2.28197e-05)
(0.096904 -2.93947e-05 5.49265e-05)
(0.124064 -4.3153e-05 8.83086e-05)
(0.14964 -6.84732e-05 0.000103439)
(0.173338 -0.000107785 8.26194e-05)
(0.195254 -0.000150228 2.49838e-05)
(0.215653 -0.000185766 -5.53093e-05)
(0.234824 -0.000209305 -0.000140626)
(0.253013 -0.000217522 -0.000217522)
(0.270413 -0.000208178 -0.000278599)
(0.287172 -0.000180675 -0.000321475)
(0.303401 -0.000135976 -0.000347015)
(0.319182 -7.60727e-05 -0.000357748)
(0.334576 -3.45009e-06 -0.000356776)
(0.349629 7.93101e-05 -0.000347143)
(0.364371 0.000169773 -0.000331523)
(0.378824 0.000265772 -0.000312109)
(0.393001 0.000365449 -0.000290605)
(0.406907 0.000467245 -0.000268275)
(0.420542 0.00056987 -0.000246004)
(0.433904 0.000672262 -0.000224371)
(0.446985 0.000773535 -0.000203716)
(0.459773 0.000872943 -0.000184197)
(0.472256 0.000969834 -0.000165838)
(0.484419 0.00106361 -0.000148574)
(0.496248 0.0011537 -0.00013228)
(0.507725 0.00123952 -0.000116796)
(0.518834 0.00132042 -0.000101946)
(0.529558 0.00139569 -8.75484e-05)
(0.539881 0.00146451 -7.34319e-05)
(0.549787 0.00152593 -5.94387e-05)
(0.559262 0.00157885 -4.5435e-05)
(0.568292 0.00162197 -3.13189e-05)
(0.576866 0.00165386 -1.7031e-05)
(0.584972 0.00167286 -2.56671e-06)
(0.592602 0.00167722 1.20121e-05)
(0.599749 0.00166506 2.66044e-05)
(0.606405 0.0016345 4.10306e-05)
(0.612566 0.00158374 5.50322e-05)
(0.618228 0.00151119 6.82822e-05)
(0.623383 0.00141561 8.04111e-05)
(0.628025 0.00129633 9.10466e-05)
(0.632141 0.00115331 9.98777e-05)
(0.635712 0.000987222 0.000106713)
(0.638709 0.000799353 0.000111547)
(0.641091 0.00059136 0.000114441)
(0.642806 0.000365399 0.000115231)
(0.64379 0.000124107 0.000114657)
(0.0179138 -7.85742e-06 -5.4992e-07)
(0.0455984 -8.35766e-06 1.3875e-05)
(0.0752907 -2.14466e-05 4.38557e-05)
(0.105605 -3.66018e-05 8.61257e-05)
(0.13498 -5.15285e-05 0.000129627)
(0.16242 -8.02616e-05 0.000152558)
(0.187596 -0.000125251 0.000134948)
(0.210642 -0.000174448 7.4534e-05)
(0.231895 -0.000218831 -1.47506e-05)
(0.251715 -0.000254692 -0.000114174)
(0.270413 -0.000278599 -0.000208178)
(0.288231 -0.000286953 -0.000286953)
(0.305352 -0.000277378 -0.000346089)
(0.32191 -0.000249233 -0.00038515)
(0.338006 -0.000203359 -0.000406114)
(0.353716 -0.000141609 -0.0004121)
(0.369093 -6.63764e-05 -0.00040651)
(0.384178 1.97733e-05 -0.000392529)
(0.398996 0.000114359 -0.000372888)
(0.413566 0.000215127 -0.000349787)
(0.427897 0.000320111 -0.000324904)
(0.441989 0.000427648 -0.000299458)
(0.455841 0.000536345 -0.000274283)
(0.469444 0.000645044 -0.000249904)
(0.482784 0.000752771 -0.000226605)
(0.495848 0.000858685 -0.000204493)
(0.508617 0.000962031 -0.000183546)
(0.52107 0.00106209 -0.000163658)
(0.533186 0.00115815 -0.000144666)
(0.544942 0.00124945 -0.000126382)
(0.556317 0.00133515 -0.000108604)
(0.567287 0.00141433 -9.11401e-05)
(0.577831 0.0014859 -7.38124e-05)
(0.587929 0.00154864 -5.64718e-05)
(0.597563 0.00160116 -3.90061e-05)
(0.606714 0.00164188 -2.1352e-05)
(0.615369 0.00166904 -3.5068e-06)
(0.623514 0.00168077 1.44491e-05)
(0.631141 0.00167507 3.23883e-05)
(0.63824 0.00164997 5.00961e-05)
(0.644806 0.00160357 6.72648e-05)
(0.650833 0.00153417 8.35053e-05)
(0.656315 0.0014405 9.83775e-05)
(0.661244 0.00132182 0.000111436)
(0.665609 0.00117809 0.000122308)
(0.66939 0.00100997 0.000130758)
(0.67256 0.000818844 0.000136769)
(0.675078 0.000606473 0.000140416)
(0.67689 0.000375136 0.000141547)
(0.677928 0.000127507 0.00014101)
(0.0194601 -9.64736e-06 5.84586e-06)
(0.0493235 -1.05168e-05 2.99858e-05)
(0.0813885 -2.56138e-05 7.0571e-05)
(0.114065 -4.1544e-05 0.000123899)
(0.145579 -5.63625e-05 0.000177764)
(0.174814 -8.73731e-05 0.000208756)
(0.201412 -0.000136425 0.000195547)
(0.225539 -0.000189867 0.000134782)
(0.247597 -0.00023986 3.96244e-05)
(0.268017 -0.000284646 -7.10999e-05)
(0.287172 -0.000321475 -0.000180675)
(0.305352 -0.000346089 -0.000277378)
(0.322772 -0.0003547 -0.0003547)
(0.339594 -0.000345028 -0.000410432)
(0.355936 -0.000316428 -0.000445388)
(0.371886 -0.000269633 -0.000462153)
(0.387507 -0.000206362 -0.000464099)
(0.402848 -0.000128913 -0.000454711)
(0.417942 -3.98138e-05 -0.000437181)
(0.43281 5.84281e-05 -0.000414219)
(0.447466 0.000163487 -0.000387991)
(0.461916 0.000273303 -0.000360137)
(0.476157 0.000386102 -0.000331836)
(0.490182 0.000500382 -0.000303879)
(0.503981 0.000614878 -0.00027675)
(0.517535 0.000728511 -0.000250695)
(0.530824 0.000840328 -0.000225783)
(0.543827 0.000949455 -0.000201958)
(0.556516 0.00105504 -0.000179083)
(0.568865 0.0011562 -0.000156969)
(0.580845 0.001252 -0.000135406)
(0.592428 0.00134138 -0.000114181)
(0.603586 0.00142316 -9.30967e-05)
(0.614292 0.001496 -7.19873e-05)
(0.624521 0.00155837 -5.07285e-05)
(0.634249 0.00160857 -2.92533e-05)
(0.643458 0.00164473 -7.56391e-06)
(0.652128 0.0016648 1.42417e-05)
(0.660246 0.00166669 3.59992e-05)
(0.667801 0.00164829 5.74527e-05)
(0.674785 0.00160757 7.82383e-05)
(0.68119 0.00154277 9.78969e-05)
(0.687009 0.0014525 0.000115909)
(0.692236 0.00133598 0.000131749)
(0.696859 0.00119314 0.000144971)
(0.700858 0.00102467 0.000155293)
(0.704207 0.000831991 0.000162683)
(0.706865 0.000616993 0.000167227)
(0.708776 0.000382075 0.000168794)
(0.70987 0.00012996 0.000168349)
(0.0209719 -1.15176e-05 1.38512e-05)
(0.0529459 -1.23065e-05 4.94788e-05)
(0.0873102 -2.85888e-05 0.000101956)
(0.122273 -4.40505e-05 0.000166954)
(0.155854 -5.75664e-05 0.000231206)
(0.186824 -8.98339e-05 0.000270297)
(0.214802 -0.000141608 0.000262332)
(0.239981 -0.000197313 0.000203242)
(0.26282 -0.000250198 0.000105207)
(0.283816 -0.000300621 -1.353e-05)
(0.303401 -0.000347015 -0.000135976)
(0.32191 -0.00038515 -0.000249233)
(0.339594 -0.000410432 -0.000345028)
(0.35664 -0.000419274 -0.000419274)
(0.373182 -0.000409543 -0.000471197)
(0.389321 -0.000380589 -0.000502315)
(0.405131 -0.000333045 -0.000515478)
(0.420667 -0.000268503 -0.000514106)
(0.435969 -0.000189159 -0.000501637)
(0.451064 -9.74906e-05 -0.000481199)
(0.46597 3.98813e-06 -0.00045544)
(0.480695 0.000112898 -0.000426475)
(0.495242 0.000227089 -0.000395902)
(0.509606 0.00034468 -0.000364866)
(0.523776 0.000464055 -0.000334127)
(0.537736 0.000583826 -0.000304137)
(0.551466 0.00070279 -0.000275115)
(0.564941 0.000819866 -0.000247103)
(0.578134 0.000934037 -0.000220022)
(0.591014 0.0010443 -0.000193711)
(0.603548 0.00114958 -0.000167966)
(0.615702 0.00124874 -0.000142566)
(0.627442 0.0013405 -0.000117298)
(0.638733 0.00142338 -9.1979e-05)
(0.649545 0.00149577 -6.64724e-05)
(0.659846 0.00155582 -4.07063e-05)
(0.66961 0.00160153 -1.46888e-05)
(0.678812 0.00163071 1.14637e-05)
(0.687434 0.00164112 3.7543e-05)
(0.69546 0.00163049 6.32444e-05)
(0.702877 0.00159668 8.81392e-05)
(0.709676 0.00153778 0.000111688)
(0.715848 0.00145232 0.000133283)
(0.721387 0.00133944 0.000152305)
(0.726279 0.00119903 0.00016823)
(0.730508 0.00103177 0.000180717)
(0.734044 0.000839157 0.000189717)
(0.736847 0.000623183 0.000195326)
(0.738861 0.000386375 0.000197444)
(0.740013 0.000131522 0.000197156)
(0.0224457 -1.34566e-05 2.30704e-05)
(0.0564606 -1.37405e-05 7.14832e-05)
(0.0930499 -3.0429e-05 0.000136773)
(0.130223 -4.43093e-05 0.000213817)
(0.165801 -5.55229e-05 0.000288371)
(0.198456 -8.82023e-05 0.000335532)
(0.227782 -0.000141626 0.000333455)
(0.253998 -0.000198106 0.000277696)
(0.277612 -0.000251806 0.000179436)
(0.299178 -0.000305079 5.59693e-05)
(0.319182 -0.000357748 -7.60727e-05)
(0.338006 -0.000406114 -0.000203359)
(0.355936 -0.000445388 -0.000316428)
(0.373182 -0.000471197 -0.000409543)
(0.389896 -0.000480216 -0.000480216)
(0.406191 -0.000470434 -0.000528522)
(0.422153 -0.000441191 -0.000556323)
(0.437842 -0.000393027 -0.000566529)
(0.453305 -0.000327411 -0.000562482)
(0.468575 -0.000246436 -0.000547513)
(0.483672 -0.00015252 -0.000524645)
(0.498612 -4.81695e-05 -0.000496447)
(0.513398 6.41941e-05 -0.000464975)
(0.528028 0.000182341 -0.000431791)
(0.542497 0.000304282 -0.000398009)
(0.556788 0.000428275 -0.000364366)
(0.570883 0.000552801 -0.000331296)
(0.584759 0.00067651 -0.000298996)
(0.598386 0.000798173 -0.000267491)
(0.611733 0.000916609 -0.000236684)
(0.624763 0.00103063 -0.000206404)
(0.637438 0.00113896 -0.000176438)
(0.649719 0.00124024 -0.000146571)
(0.661566 0.0013329 -0.000116608)
(0.67294 0.00141521 -8.64011e-05)
(0.683802 0.00148523 -5.58729e-05)
(0.694119 0.00154081 -2.50375e-05)
(0.703858 0.00157963 5.97073e-06)
(0.712994 0.00159928 3.6894e-05)
(0.721504 0.00159733 6.73724e-05)
(0.729371 0.0015715 9.69022e-05)
(0.736581 0.00151971 0.000124853)
(0.743125 0.00144039 0.000150514)
(0.748992 0.00133255 0.000173164)
(0.754169 0.00119603 0.000192183)
(0.758639 0.00103152 0.000207167)
(0.762373 0.00084053 0.00021804)
(0.76533 0.00062518 0.00022491)
(0.767453 0.000388119 0.000227714)
(0.768664 0.00013222 0.000227657)
(0.0238799 -1.54608e-05 3.30897e-05)
(0.0598659 -1.48837e-05 9.50978e-05)
(0.0986063 -3.13177e-05 0.000173758)
(0.137916 -4.27133e-05 0.000263018)
(0.175426 -5.08742e-05 0.000347749)
(0.209717 -8.3323e-05 0.000402963)
(0.240366 -0.000137561 0.000407313)
(0.267613 -0.000193729 0.000356247)
(0.292005 -0.000246741 0.000260012)
(0.314148 -0.000300693 0.000134817)
(0.334576 -0.000356776 -3.45009e-06)
(0.353716 -0.0004121 -0.000141609)
(0.371886 -0.000462153 -0.000269633)
(0.389321 -0.000502315 -0.000380589)
(0.406191 -0.000528522 -0.000470434)
(0.422624 -0.000537669 -0.000537669)
(0.438713 -0.000527838 -0.000582832)
(0.454527 -0.000498353 -0.000607909)
(0.470118 -0.000449665 -0.000615748)
(0.485524 -0.000383129 -0.000609556)
(0.500771 -0.000300734 -0.000592519)
(0.515877 -0.000204835 -0.000567542)
(0.530849 -9.79216e-05 -0.000537108)
(0.545691 1.75481e-05 -0.000503216)
(0.560397 0.000139268 -0.000467391)
(0.574955 0.000265139 -0.000430727)
(0.589351 0.000393289 -0.000393943)
(0.60356 0.000522045 -0.00035746)
(0.617555 0.0006499 -0.000321465)
(0.631304 0.000775445 -0.000285971)
(0.64477 0.000897312 -0.000250875)
(0.657913 0.0010141 -0.000216002)
(0.670689 0.00112432 -0.00018115)
(0.683053 0.00122633 -0.000146125)
(0.694959 0.0013183 -0.000110775)
(0.706364 0.00139819 -7.50197e-05)
(0.717223 0.00146375 -3.88783e-05)
(0.727498 0.00151253 -2.50412e-06)
(0.737153 0.00154195 3.37967e-05)
(0.746159 0.00154943 6.95986e-05)
(0.754492 0.00153249 0.000104315)
(0.762132 0.0014889 0.000137213)
(0.769066 0.00141693 0.000167463)
(0.77528 0.00131548 0.000194226)
(0.78076 0.00118428 0.000216775)
(0.785486 0.001024 0.000234627)
(0.78943 0.000836174 0.000247672)
(0.792551 0.000623026 0.000256026)
(0.79479 0.000387331 0.000259671)
(0.796064 0.000132061 0.000259933)
(0.0252738 -1.75309e-05 4.35303e-05)
(0.0631631 -1.58212e-05 0.000119501)
(0.103982 -3.14867e-05 0.000211759)
(0.145357 -3.97264e-05 0.000313234)
(0.184736 -4.43431e-05 0.000407996)
(0.220619 -7.6124e-05 0.000471279)
(0.252569 -0.000130543 0.000482542)
(0.280845 -0.000185622 0.000437304)
(0.306027 -0.000236902 0.000344966)
(0.328762 -0.000289941 0.000220642)
(0.349629 -0.000347143 7.93101e-05)
(0.369093 -0.00040651 -6.63764e-05)
(0.387507 -0.000464099 -0.000206362)
(0.405131 -0.000515478 -0.000333045)
(0.422153 -0.000556323 -0.000441191)
(0.438713 -0.000582832 -0.000527838)
(0.454915 -0.000592072 -0.000592072)
(0.470835 -0.000582194 -0.000634655)
(0.486532 -0.000552501 -0.000657565)
(0.502048 -0.000503359 -0.000663526)