/*--------------------------------*- C++ -*----------------------------------*\
| =========                 |                                                 |
| \\      /  F ield         | OpenFOAM: The Open Source CFD Toolbox           |
|  \\    /   O peration     | Version:  v1912                                 |
|   \\  /    A nd           | Website:  www.openfoam.com                      |
|    \\/     M anipulation  |                                                 |
\*---------------------------------------------------------------------------*/
FoamFile
{
    version     2.0;
    format      ascii;
    class       volTensorField;
    location    "1";
    object      grad(U);
}
// * * * * * * * * * * * * * * * * * * * * * * * * * * * * * * * * * * * * * //

dimensions      [0 0 -1 0 0 0 0];


internalField   nonuniform List<tensor> 
3000
(
(-0.692446 -0.128837 -2.50102e-19 21.8364 0.5578 -9.61658e-21 1.92532e-18 4.92066e-20 -7.81618e-40)
(0.623462 -0.170518 -1.47265e-19 19.8305 -0.542043 -2.88096e-18 0 0 0)
(1.926 -0.304458 1.25826e-17 15.62 -1.81077 1.04899e-19 0 0 0)
(0.975893 -0.0579983 -4.06428e-17 5.71098 -1.07815 7.01593e-17 0 0 0)
(-3.34543 1.97918 -7.82633e-17 -4.73366 2.67039 -1.10549e-16 -1.25625e-16 7.08428e-17 -2.93769e-33)
(-4.8306 3.30398 -6.01973e-17 -6.83474 4.42708 4.87649e-19 -1.90881e-20 9.32179e-21 -1.08739e-36)
(-3.88006 2.89534 -4.75969e-16 -5.08642 3.68419 -5.7949e-16 -4.28237e-20 2.96845e-20 -7.64234e-36)
(-3.09023 2.36518 9.28152e-16 -3.84579 2.91112 5.00495e-16 -2.08181e-20 1.60635e-20 4.74927e-35)
(-2.34357 1.77729 5.4465e-16 -2.9377 2.21849 8.701e-16 8.69334e-17 -6.56467e-17 -2.57108e-32)
(-1.79761 1.35821 -5.76139e-16 -2.29317 1.73076 -7.89043e-16 -6.69867e-17 5.05545e-17 -2.28986e-32)
(-1.52118 1.13568 7.25382e-16 -1.95749 1.46034 9.28324e-16 5.65356e-17 -4.21769e-17 -2.68244e-32)
(-1.34104 1.01796 -1.31148e-15 -1.72794 1.31148 -8.28195e-16 -4.95442e-17 3.76022e-17 -2.44372e-32)
(-1.31141 0.993539 -4.48813e-16 -1.68626 1.28309 -8.62593e-16 0 0 0)
(-1.26944 0.944065 2.17185e-16 -1.65662 1.2389 -1.6169e-17 -1.09144e-19 7.59571e-20 -3.59631e-37)
(-1.15851 0.831243 -3.18089e-16 -1.56882 1.13411 -7.81443e-16 5.90244e-21 -6.4397e-21 9.45207e-35)
(-0.967793 0.645705 6.55489e-16 -1.40943 0.951333 9.02269e-16 9.61047e-20 -6.46375e-20 -9.06702e-35)
(-0.701827 0.416887 2.99176e-16 -1.15616 0.700502 8.43623e-16 1.14458e-19 -6.88782e-20 6.88137e-38)
(-0.406545 0.197939 -6.76075e-16 -0.827074 0.420308 -8.87623e-16 -1.0907e-19 6.56354e-20 -6.55739e-38)
(-0.133754 0.0399346 -3.69994e-17 -0.442514 0.16045 -6.36165e-17 0 0 0)
(0.052492 -0.0281328 2.98006e-16 -0.0459721 -0.0205557 -7.76968e-18 0 0 0)
(0.116792 -0.0222763 -2.83528e-17 0.314657 -0.081484 -1.21273e-16 0 0 0)
(0.0423593 0.00918778 -2.60323e-16 0.398084 -0.0159886 -3.64475e-16 -2.31834e-18 8.75441e-20 2.18577e-33)
(-0.0474029 0.0108899 2.54633e-18 0.148064 0.0621634 7.02827e-19 4.19047e-20 4.58376e-21 -5.34014e-35)
(-0.0350458 -0.00401047 4.61014e-17 -0.208275 0.0485366 5.89742e-18 1.75667e-20 -8.50097e-21 2.50719e-35)
(0.0110122 -0.0044741 -7.659e-18 -0.290727 -0.0165307 1.1332e-17 1.47768e-20 1.57783e-21 -6.51301e-38)
(0.0389363 -0.00163641 -1.42509e-18 -0.164483 -0.0438787 -1.04639e-17 -1.47768e-20 -1.57783e-21 6.51301e-38)
(0.0529383 -0.00113129 1.40038e-18 0.0487208 -0.064002 1.68557e-17 -2.35503e-20 1.72094e-21 -2.42433e-38)
(0.0607334 -0.000612927 -1.2212e-18 0.325731 -0.0738824 -1.47891e-17 2.35503e-20 -1.72094e-21 2.42433e-38)
(0.0617905 -0.000134595 1.14921e-18 0.637875 -0.0777934 -5.07308e-20 0 0 0)
(0.0544588 0.000752617 9.96407e-19 0.955568 -0.0734622 -3.99868e-20 0 0 0)
(0.038587 0.00193444 -9.83229e-19 1.23552 -0.0582952 -3.00902e-18 -9.61431e-20 1.0678e-21 -4.43781e-39)
(0.0212994 0.00240522 -2.64349e-20 1.44554 -0.0334148 -4.02491e-18 9.61431e-20 -1.0678e-21 4.43781e-39)
(0.0155612 0.000856237 9.7922e-19 1.58368 -0.0125539 1.06564e-17 -1.08556e-19 -3.0489e-23 -3.25287e-37)
(0.0206597 -0.000958339 -1.90006e-18 1.70745 -0.0152643 -3.08975e-18 -6.95714e-21 3.22719e-22 6.39843e-37)
(0.020299 -0.000316298 -9.08357e-19 1.84581 -0.0256829 -8.49541e-19 1.15513e-19 -2.92231e-22 -3.14556e-37)
(0.0120719 0.000943036 1.84055e-18 1.96333 -0.0194906 -3.82453e-18 1.26414e-19 -8.11774e-23 -6.41486e-40)
(0.0137457 -0.000386747 9.12366e-19 2.03415 -0.0113408 3.73745e-18 -1.26414e-19 8.11774e-23 6.41486e-40)
(0.0286735 -0.0031986 -1.33742e-18 2.1128 -0.0259008 2.85853e-18 0 0 0)
(0.0300803 -0.00263437 4.22842e-19 2.22998 -0.0568669 -7.37307e-18 7.5414e-20 -1.08783e-21 -6.9319e-40)
(0.0139259 -1.00452e-05 1.50769e-20 2.22554 -0.0553819 7.438e-18 -7.5414e-20 1.08783e-21 6.9319e-40)
(0.00994377 -0.00158619 -4.15309e-19 2.10206 -0.0268827 -7.56213e-18 7.94351e-20 -1.35662e-21 -6.80819e-38)
(0.0141569 -0.00430586 8.23995e-19 1.96839 -0.00777366 5.09879e-18 2.38365e-21 -7.24997e-22 1.3874e-37)
(-0.00666998 -0.00175683 -2.0092e-19 1.58421 0.0157182 1.65458e-18 -8.18147e-20 2.08154e-21 -7.06593e-38)
(-0.0430062 0.00317472 -2.13227e-19 0.71224 0.0653824 -2.33734e-18 3.67271e-20 -9.21457e-22 4.64563e-40)
(-0.0770192 0.00596123 1.93371e-19 -0.12978 0.112518 8.19766e-19 -3.67251e-20 9.21408e-22 -4.64538e-40)
(-0.110014 0.00663604 -1.98902e-19 -1.02579 0.155335 1.99542e-21 0 0 0)
(-0.153778 0.00612361 0 -1.9601 0.188851 0 0 0 0)
(-0.189576 0.00482773 0 -2.99349 0.211478 1.13225e-19 0 0 0)
(-0.202197 0.00337269 0 -4.02532 0.223372 -5.31878e-20 0 0 0)
(-0.210111 0.00231368 0 -5.04188 0.227972 -4.23671e-20 0 0 0)
(-0.21198 0.00140544 0 -6.02723 0.226591 3.42499e-20 0 0 0)
(-0.208453 0.000637379 0 -6.96532 0.220391 -3.19579e-20 0 0 0)
(-0.200834 2.46725e-05 0 -7.8444 0.210567 0 0 0 0)
(-0.190003 -0.000498306 0 -8.65578 0.197964 0 0 0 0)
(-0.176458 -0.00101217 0 -9.3923 0.182884 0 0 0 0)
(-0.160436 -0.00153337 0 -10.0478 0.165287 0 0 0 0)
(-0.142115 -0.00198972 0 -10.6163 0.14527 0 0 0 0)
(-0.121842 -0.00227872 0 -11.0926 0.123499 0 0 0 0)
(-0.100249 -0.00235696 0 -11.473 0.101147 -3.95456e-19 0 0 0)
(-0.0782653 -0.00229272 1.24092e-19 -11.7566 0.079403 3.96899e-19 0 0 0)
(-0.0569716 -0.00223465 1.21912e-20 -11.9462 0.0588773 5.13151e-19 3.62687e-19 -1.03733e-21 -2.29456e-38)
(-0.0374428 -0.00230356 -5.53827e-19 -12.0484 0.0394204 3.72867e-20 6.3044e-21 3.87861e-22 9.32502e-38)
(-0.0206524 -0.00249009 6.07667e-19 -12.0735 0.0204932 -2.3328e-18 -1.11396e-18 1.1099e-21 -6.2914e-39)
(-0.00745317 -0.00268339 1.0503e-19 -12.03 0.00213644 3.77639e-18 1.49235e-18 -1.71625e-23 -1.63395e-37)
(0.00509029 -0.00272447 -6.19848e-19 -11.9314 -0.0151793 -1.29792e-18 -7.47455e-19 -4.43249e-22 9.93851e-38)
(0.0186122 -0.00248702 7.50417e-19 -11.783 -0.0304089 8.80404e-20 0 0 0)
(0.0299637 -0.00201255 -3.18947e-15 -11.5938 -0.0423954 -1.08683e-16 7.29375e-19 2.87591e-21 1.07391e-33)
(0.037573 -0.00138897 -3.54635e-15 -11.3763 -0.0506449 -1.33117e-14 4.87405e-17 2.2791e-19 1.55478e-31)
(0.0411433 -0.000587115 3.18999e-15 -11.1428 -0.0548791 -1.45388e-14 -4.94694e-17 -2.30784e-19 -1.5655e-31)
(0.0402796 0.000467918 3.54594e-15 -10.9053 -0.0546691 1.3745e-16 6.89301e-19 3.38377e-21 -1.9597e-37)
(0.0345496 0.00175804 -1.14523e-18 -10.676 -0.0498804 9.58813e-20 -1.16345e-20 -5.92017e-22 3.85654e-37)
(0.0237182 0.00308886 -3.46251e-20 -10.4654 -0.0413651 -5.105e-18 -6.77675e-19 -2.79181e-21 -1.89673e-37)
(0.00921751 0.00392293 5.97852e-19 -10.2814 -0.0320407 5.56678e-18 0 0 0)
(-0.000562109 0.00301925 1.5123e-18 -10.121 -0.029018 -2.84216e-18 0 0 0)
(0.0169255 -0.00274297 -1.51434e-18 -9.93948 -0.0479886 6.17464e-18 1.32209e-18 6.75122e-22 1.43672e-39)
(0.0856098 -0.0227441 -1.51232e-18 -9.60612 -0.128723 -9.93386e-18 -1.32214e-18 -6.75147e-22 -1.43677e-39)
(0.212447 -0.0684947 -2.91145e-17 -8.96614 -0.382188 2.02036e-18 0 0 0)
(0.861057 -0.0274242 1.05047e-17 -8.09874 -0.963927 -1.26169e-16 0 0 0)
(1.54973 0.196176 1.78008e-16 -7.48694 -1.60386 1.02679e-17 0 0 0)
(2.17296 0.546331 -1.81113e-16 -7.11834 -2.2063 5.96859e-16 0 0 0)
(2.75949 0.996098 -1.4913e-16 -6.82895 -2.76099 -1.43903e-17 0 0 0)
(3.27977 1.51355 -3.53915e-16 -6.54252 -3.23482 -1.50343e-17 0 0 0)
(3.69906 2.04176 5.65974e-17 -6.21465 -3.57887 -1.39683e-15 0 0 0)
(3.92893 2.45146 2.27551e-15 -5.81796 -3.72608 -2.81985e-15 -1.57626e-16 -1.00847e-16 -7.69633e-32)
(3.91084 2.64354 1.54922e-15 -5.28165 -3.63275 -1.03338e-15 0 0 0)
(3.6068 2.56377 7.55065e-18 -4.54439 -3.27579 -1.01423e-17 0 0 0)
(3.0012 2.20303 -9.09862e-18 -3.56685 -2.6629 1.19505e-17 0 0 0)
(2.12307 1.61962 1.32153e-18 -2.31534 -1.83202 5.2291e-20 0 0 0)
(0.937481 0.820388 -1.87014e-15 -0.680915 -0.729693 2.40126e-15 2.61892e-20 9.74469e-21 1.21339e-38)
(-0.50563 -0.205914 1.26284e-15 1.17235 0.601476 3.15902e-17 -2.71107e-20 -1.00876e-20 -1.25608e-38)
(-2.0536 -1.35359 -4.23814e-15 3.05724 2.01849 5.12542e-15 -8.89217e-17 -5.87127e-17 -1.49751e-31)
(-3.96138 -2.80327 -1.30524e-15 5.35554 3.76501 -3.08368e-17 0 0 0)
(-6.46168 -4.66564 -3.5805e-18 8.48329 6.03421 8.05736e-19 -1.16436e-19 -7.74002e-20 1.50403e-37)
(-9.54151 -6.71342 8.87695e-16 12.8961 8.83655 -8.27265e-16 -3.77004e-16 -2.58331e-16 2.4178e-32)
(-12.8514 -8.37406 -2.93579e-16 19.0355 11.8697 4.05396e-16 -5.36715e-16 -3.34632e-16 -1.14505e-32)
(-15.2619 -8.59094 -2.2451e-16 26.9785 14.1079 3.0777e-17 7.16529e-16 3.74589e-16 8.03968e-34)
(-13.709 -5.97856 -2.56605e-17 34.672 13.2217 5.51628e-17 3.6597e-19 1.06034e-19 -3.48339e-42)
(-7.74991 -2.42613 -2.77486e-18 37.4059 8.53751 1.40905e-17 -3.48333e-19 -1.00924e-19 3.31552e-42)
(-2.93372 -0.739569 -1.10393e-21 33.5144 3.78585 6.49574e-24 0 0 0)
(-1.11913 -0.236213 -1.98891e-21 26.5194 1.38955 0 0 0 0)
(-0.566637 -0.220888 -2.5729e-19 12.2425 0.474983 1.01441e-20 -1.48942e-18 -4.04139e-20 -6.1699e-39)
(-0.047897 -0.28524 1.0071e-19 12.1484 0.109149 1.86535e-18 4.10817e-17 -5.07185e-19 -8.25286e-37)
(0.804403 -0.266879 1.31582e-18 11.3373 -0.517066 5.41616e-18 -2.57195e-19 1.29481e-20 1.37e-38)
(1.958 -0.0909053 3.17887e-17 11.2192 -1.49495 -5.95364e-17 0 0 0)
(1.8965 0.0854773 2.07269e-16 7.02019 -1.34312 3.44085e-16 1.06521e-16 -6.0075e-17 2.48923e-33)
(-1.12063 1.20944 -2.6476e-16 -0.876907 1.23544 -2.79823e-16 -3.48718e-20 2.62734e-20 1.50557e-36)
(-1.53176 1.28381 8.07691e-16 -2.32094 1.8095 8.13738e-16 1.53083e-19 -1.16975e-19 -1.38725e-35)
(-1.45529 1.12619 -1.10631e-16 -2.0911 1.59673 7.67621e-17 1.58322e-16 -1.20264e-16 -1.49301e-32)
(-1.29657 0.948956 -1.25558e-15 -1.83551 1.36311 -1.32191e-15 -7.34827e-17 5.54937e-17 2.1708e-32)
(-1.13465 0.840033 8.39398e-16 -1.59135 1.18997 1.10162e-15 -4.62656e-17 3.45921e-17 3.20339e-32)
(-1.02988 0.764765 -8.36056e-16 -1.41755 1.05278 -1.04333e-15 -4.78881e-17 3.57256e-17 2.27214e-32)
(-0.945555 0.732248 1.16681e-15 -1.27419 0.975051 1.22408e-15 -3.64404e-17 2.78951e-17 3.52584e-32)
(-0.884283 0.694764 5.57455e-16 -1.1649 0.916685 7.27752e-16 2.36579e-19 -1.8308e-19 1.6464e-39)
(-0.815933 0.619867 -6.3853e-16 -1.09498 0.850149 -5.05849e-16 -2.29962e-19 1.77958e-19 -1.60034e-39)
(-0.718791 0.502212 2.86892e-16 -1.02402 0.75571 4.01362e-16 -6.58719e-17 4.80112e-17 -6.90945e-33)
(-0.598179 0.351641 -4.51486e-17 -0.950165 0.627615 -8.05494e-16 -7.5044e-19 5.11295e-19 8.18767e-36)
(-0.462701 0.203019 -5.25609e-16 -0.871199 0.483631 -3.74444e-16 4.99126e-17 -2.89936e-17 -8.65948e-33)
(-0.324264 0.0816474 -1.82665e-16 -0.786799 0.336843 -1.21226e-16 -3.83869e-17 1.77697e-17 -2.32185e-32)
(-0.195676 0.00817992 2.64596e-16 -0.692825 0.202903 -5.62057e-17 1.32053e-17 -4.15845e-18 1.27406e-33)
(-0.0834722 -0.0112423 -2.31494e-16 -0.58949 0.0995082 3.58481e-16 8.934e-20 -2.05083e-20 -9.07429e-35)
(-0.0204156 0.0116796 -4.96883e-17 -0.427754 0.0424115 2.55129e-16 -1.86513e-18 -3.05753e-19 1.90187e-33)
(-0.051453 0.0370771 2.44242e-16 -0.221485 0.0503192 -8.1172e-17 1.98659e-18 -8.28761e-20 -2.01392e-33)
(-0.118521 0.0178307 1.11497e-16 -0.174659 0.0783596 4.37461e-17 1.63288e-19 -3.74158e-19 -1.43075e-34)
(-0.0846793 -0.017594 -5.15915e-17 -0.305571 0.0533101 -3.40925e-17 -5.88128e-20 1.18539e-20 -1.99938e-36)
(0.000583507 -0.0210596 3.63327e-18 -0.36639 -0.00584944 9.68741e-18 0 0 0)
(0.0514905 -0.0115681 3.39053e-18 -0.390613 -0.046586 -8.30265e-18 0 0 0)
(0.077681 -0.00721401 -2.88173e-18 -0.419969 -0.0789378 5.87177e-18 -1.47586e-20 1.90545e-20 -2.90707e-37)
(0.096534 -0.00319963 -3.39053e-18 -0.421936 -0.102023 -1.45385e-17 1.47586e-20 -1.90545e-20 2.90707e-37)
(0.106708 0.000295434 2.88173e-18 -0.383501 -0.116846 -1.26299e-19 0 0 0)
(0.105985 0.0047005 -2.04516e-18 -0.304309 -0.119322 8.1668e-18 0 0 0)
(0.0938995 0.00916482 1.02703e-20 -0.20269 -0.108297 -4.57984e-18 2.45088e-19 -1.27918e-20 -1.16265e-36)
(0.0739638 0.0102051 3.95273e-18 -0.0703084 -0.0850769 -3.24092e-18 4.22597e-20 5.83078e-21 2.25842e-36)
(0.0563596 0.00413586 -9.05463e-19 0.0727335 -0.0627957 3.91741e-18 -2.87347e-19 6.96098e-21 -1.09577e-36)
(0.0504629 -0.00262853 -1.06055e-18 0.19305 -0.0664211 -4.23158e-19 1.74191e-19 -3.04988e-21 -1.37645e-38)
(0.048987 -0.000816332 8.95193e-19 0.250956 -0.0796948 3.68227e-18 -1.74191e-19 3.04988e-21 1.37645e-38)
(0.039435 0.00298132 -8.47011e-19 0.296413 -0.0713782 3.22484e-18 0 0 0)
(0.0265417 -0.00140355 8.0624e-19 0.330247 -0.0500542 -3.21369e-18 0 0 0)
(0.022148 -0.00923502 -1.59822e-18 0.26417 -0.0293073 4.66367e-19 -2.1336e-19 5.4706e-21 2.26252e-37)
(-0.00344179 -0.0052835 8.18369e-19 0.0522044 -0.00937385 -3.04514e-18 4.25738e-19 -1.24506e-20 -2.18714e-37)
(-0.053098 0.00858074 -7.68578e-20 -0.679977 0.0900408 2.52058e-18 -4.09585e-19 1.15086e-20 6.87992e-39)
(-0.0851556 0.0154414 -1.74085e-19 -1.24296 0.178079 -1.30266e-18 3.701e-19 -4.64626e-21 -7.85698e-38)
(-0.164603 0.0172422 1.66034e-18 -1.8426 0.253881 2.04024e-18 -2.35808e-19 -2.28664e-21 -1.40939e-37)
(-0.350912 0.0229877 -1.89053e-18 -2.54628 0.311343 -1.42355e-18 5.0124e-20 -3.28355e-21 2.70041e-37)
(-0.438701 0.0239105 1.47427e-20 -3.28578 0.345403 8.39654e-19 1.28039e-20 5.68789e-21 -6.49595e-38)
(-0.405323 0.0186459 4.40008e-19 -3.91821 0.359533 -7.18645e-19 0 0 0)
(-0.392665 0.01395 0 -4.44686 0.362899 -1.52329e-20 0 0 0)
(-0.380146 0.0087878 3.2319e-20 -4.87669 0.357921 -2.49662e-19 0 0 0)
(-0.365604 0.0041458 -1.51827e-20 -5.16118 0.345554 1.72134e-20 6.75891e-20 -3.90147e-21 -6.11892e-40)
(-0.345831 0.000720741 -4.44129e-20 -5.3719 0.328729 -7.9035e-21 -2.76221e-20 1.938e-21 1.09895e-39)
(-0.323198 -0.00181541 2.49586e-20 -5.51257 0.308321 -6.44867e-21 -3.99703e-20 1.96367e-21 -4.87003e-40)
(-0.298586 -0.00382411 2.97092e-21 -5.59311 0.285185 5.17022e-21 5.10722e-20 -1.86298e-21 -1.16755e-41)
(-0.272428 -0.00532591 -9.77675e-21 -5.62422 0.260335 -4.86093e-21 -5.1074e-20 1.86304e-21 1.16759e-41)
(-0.245271 -0.00642922 9.12218e-21 -5.6145 0.234513 3.66015e-23 0 0 0)
(-0.217401 -0.00731138 0 -5.57098 0.208119 0 0 0 0)
(-0.188938 -0.00812886 0 -5.4994 0.181206 1.11079e-19 0 0 0)
(-0.159945 -0.00892176 0 -5.4047 0.153599 -1.22684e-22 0 0 0)
(-0.130479 -0.00957464 0 -5.29134 0.125216 -1.09913e-19 0 0 0)
(-0.100769 -0.009901 -1.12879e-19 -5.16331 0.0963854 -1.81205e-21 0 0 0)
(-0.0712988 -0.00980241 1.12588e-19 -5.02425 0.0678909 -5.78745e-20 -1.21325e-18 1.11256e-20 -8.36698e-41)
(-0.0428291 -0.00935768 1.12883e-19 -4.87726 0.0407406 -2.14008e-19 1.21331e-18 -1.11262e-20 8.36743e-41)
(-0.0162328 -0.00877247 -1.12584e-19 -4.72484 0.0158223 -1.57515e-19 0 0 0)
(0.00768144 -0.00823303 -1.63417e-19 -4.569 -0.00624368 -3.8636e-19 0 0 0)
(0.0294653 -0.00769773 3.46051e-19 -4.41224 -0.0248885 1.77196e-18 -1.21955e-18 1.39542e-21 5.21729e-38)
(0.0491606 -0.00701035 1.80999e-19 -4.25652 -0.0400647 -1.98521e-18 2.42493e-18 -7.87996e-22 -1.56048e-37)
(0.0642529 -0.00607278 -3.2761e-19 -4.1004 -0.0518383 2.04894e-19 -1.83557e-20 1.73486e-21 9.35911e-38)
(0.0741427 -0.00483683 -4.87213e-19 -3.95392 -0.0604316 9.4358e-19 -2.1181e-20 1.38178e-21 1.39186e-37)
(0.0805167 -0.00340893 -3.06261e-19 -3.81999 -0.0661409 -1.75243e-18 -2.30887e-18 -8.42182e-21 -3.45282e-37)
(0.0842557 -0.00193675 1.01662e-18 -3.69545 -0.0692154 1.11855e-14 -1.0948e-18 -5.80444e-21 3.64466e-37)
(0.0858021 -0.000474892 2.87823e-19 -3.57602 -0.0700163 1.24347e-14 2.23772e-18 1.05022e-20 -1.48077e-37)
(0.0857193 0.000847616 -5.4699e-19 -3.45607 -0.0691154 -1.84443e-18 0 0 0)
(0.08496 0.00168967 -7.51446e-19 -3.32815 -0.067592 -5.57955e-20 0 0 0)
(0.0849174 0.00141651 1.58144e-18 -3.1826 -0.0670616 -1.73987e-18 -2.04269e-18 -8.51466e-21 4.74232e-37)
(0.0877237 -0.00110821 -8.0664e-20 -3.00799 -0.0699382 4.6515e-18 4.03512e-18 1.76619e-20 -9.02344e-37)
(0.0981499 -0.00802561 -1.58148e-18 -2.79554 -0.079324 -4.07582e-19 -1.99261e-18 -9.14808e-21 4.28152e-37)
(0.125718 -0.0248454 -1.95177e-19 -2.55355 -0.100028 -1.21145e-17 0 0 0)
(0.173912 -0.0675315 1.02773e-18 -2.33328 -0.145625 9.52616e-18 -1.76528e-18 -6.65139e-20 2.5322e-40)
(0.211554 -0.154844 1.02561e-18 -2.23154 -0.249773 5.98997e-19 1.76519e-18 6.65103e-20 -2.53206e-40)
(0.371544 -0.191265 -6.616e-18 -2.32983 -0.43994 6.81602e-17 0 0 0)
(0.587755 -0.105683 1.85567e-17 -2.3373 -0.677035 -9.86824e-17 0 0 0)
(0.785209 0.0490692 2.12849e-16 -2.19793 -0.897131 -7.29356e-16 0 0 0)
(0.934313 0.23836 2.10404e-18 -1.96398 -1.06733 -7.1753e-19 -1.40553e-18 -6.80195e-19 8.02628e-38)
(1.00951 0.441095 -1.28316e-16 -1.66487 -1.17005 2.62318e-16 1.46805e-18 7.10453e-19 -8.38333e-38)
(0.998284 0.636342 -1.00854e-15 -1.31653 -1.19521 1.73357e-15 -1.29308e-18 -8.62855e-19 -5.97693e-37)
(0.890679 0.779221 -2.36446e-15 -0.930289 -1.13195 3.07611e-15 -2.42235e-17 -2.97663e-17 8.36923e-32)
(0.71055 0.844912 -4.45355e-16 -0.523509 -0.992629 6.42033e-16 -1.39439e-16 -1.13244e-16 -7.53784e-33)
(0.487217 0.832529 3.60578e-16 -0.111322 -0.797273 9.42381e-18 -8.3483e-19 -7.23951e-19 3.45014e-37)
(0.232572 0.742302 1.84861e-18 0.319493 -0.553885 1.97267e-18 8.61855e-19 7.47386e-19 -3.56183e-37)
(-0.0465974 0.587456 7.0341e-16 0.807735 -0.236953 4.00262e-17 0 0 0)
(-0.373417 0.34405 1.90861e-15 1.29657 0.174538 -2.49809e-15 -1.95408e-17 1.34596e-17 1.3138e-32)
(-0.6476 0.0820238 -1.66521e-15 1.60876 0.539505 1.15773e-15 0 0 0)
(-0.997352 -0.263024 5.14038e-15 2.05592 1.01139 -6.33688e-15 -5.94109e-17 -2.90609e-17 1.84702e-31)
(-1.37997 -0.638541 1.2324e-18 2.63326 1.54962 2.91148e-20 0 0 0)
(-1.72236 -1.00192 3.08048e-16 3.28864 2.07673 -6.32449e-16 0 0 0)
(-1.88878 -1.26259 -4.36268e-16 3.97086 2.48496 3.57362e-16 3.19254e-16 2.18762e-16 -2.04781e-32)
(-1.76415 -1.35552 8.9281e-16 4.57672 2.60538 -9.08427e-16 4.54796e-16 2.83556e-16 9.69779e-33)
(-1.35995 -1.36578 3.76174e-17 4.96423 2.31028 1.90595e-16 1.31743e-16 6.12018e-17 5.06806e-33)
(-1.15587 -1.46197 1.16099e-17 5.53154 1.85025 -2.81312e-17 -4.28573e-16 -1.60069e-16 -2.29195e-34)
(-1.27536 -1.30537 -1.02836e-17 6.85576 1.33003 -4.82528e-18 2.22776e-16 4.94632e-17 4.13188e-35)
(-1.21632 -0.797236 -2.61228e-18 8.75009 0.896087 -2.51553e-18 0 0 0)
(-0.800783 -0.333027 6.48953e-22 10.8517 0.654904 0 0 0 0)
(-0.365734 -0.234294 1.72512e-19 4.76733 0.225729 -2.36117e-21 0 0 0)
(-0.297199 -0.331474 1.37002e-18 5.16064 0.193344 2.47907e-18 -3.50764e-17 4.30569e-19 6.31132e-37)
(-0.134525 -0.284733 -7.15349e-19 5.90891 0.0225433 -2.56894e-18 -1.5418e-16 9.88648e-18 -1.16459e-35)
(0.56564 -0.0627381 -6.64805e-18 6.78612 -0.541838 -1.32369e-17 0 0 0)
(2.02324 -0.262197 -2.10937e-16 8.91681 -2.09377 -2.12416e-16 0 0 0)
(1.81076 -0.397784 1.54544e-16 5.63557 -1.74995 6.7423e-17 -7.67587e-19 6.97888e-17 -4.76188e-33)
(-0.541505 0.367618 -8.79747e-17 -0.52858 0.43599 -2.13453e-16 1.79246e-16 -1.34554e-16 -1.78887e-33)
(-0.599717 0.292425 -6.60077e-16 -1.06566 0.608645 -6.68001e-16 3.13923e-17 -1.79117e-17 1.97776e-32)
(-0.643842 0.334448 5.67511e-16 -1.08678 0.634593 4.96294e-16 0 0 0)
(-0.639283 0.391393 -5.89209e-18 -1.02427 0.652707 -2.26263e-16 8.71413e-17 -6.54923e-17 -1.06779e-32)
(-0.624481 0.404454 9.77996e-17 -0.950498 0.617739 6.32915e-17 1.02377e-16 -7.36432e-17 4.36682e-33)
(-0.587028 0.416449 -1.0007e-16 -0.86162 0.590305 8.20345e-17 6.64087e-17 -5.06035e-17 -1.23285e-32)
(-0.546444 0.389498 -6.35841e-16 -0.76647 0.548742 -3.35283e-16 0 0 0)
(-0.503005 0.32614 3.98641e-16 -0.712992 0.499348 2.66853e-16 -8.08757e-17 6.02173e-17 -4.75693e-33)
(-0.447367 0.243011 7.3435e-16 -0.68186 0.448768 7.26211e-16 5.66923e-17 -4.13195e-17 5.98914e-33)
(-0.393764 0.155722 -3.81513e-16 -0.677384 0.396288 2.593e-17 0 0 0)
(-0.339645 0.0839158 -5.09048e-16 -0.691911 0.34796 -7.74607e-16 -4.14947e-17 2.4129e-17 7.40097e-33)
(-0.285086 0.0316051 5.87839e-16 -0.722707 0.29918 1.08348e-15 -1.88248e-17 7.75099e-18 2.82939e-32)
(-0.225963 0.00376255 -5.77474e-17 -0.761656 0.246492 -3.55229e-16 -3.26103e-17 1.03311e-17 -6.60228e-33)
(-0.159982 0.00329174 4.63698e-16 -0.791803 0.188724 -1.68321e-16 1.58716e-17 -3.0493e-18 -1.88629e-33)
(-0.105838 0.025735 4.41723e-17 -0.826674 0.134881 5.31223e-16 1.27205e-17 -1.04647e-18 -9.09175e-33)
(-0.0932713 0.0382974 -2.52186e-16 -0.74341 0.0865227 4.74945e-16 0 0 0)
(-0.126729 0.0101058 -1.90928e-17 -0.570562 0.0646896 -1.62425e-16 1.6628e-20 2.71639e-19 1.69392e-34)
(-0.0896647 -0.030599 5.01513e-17 -0.521126 0.0495767 9.91515e-18 -2.01543e-19 5.01863e-20 -4.67779e-35)
(-0.0133614 -0.03502 -1.4117e-20 -0.555494 0.02293 2.89066e-18 2.53419e-19 1.78045e-20 -6.77857e-37)
(0.0199278 -0.0242168 -3.68189e-18 -0.631128 -0.0131579 -2.39667e-18 -2.53419e-19 -1.78045e-20 6.77857e-37)
(0.0386424 -0.0185649 -3.8928e-20 -0.740899 -0.0478773 -8.84539e-18 9.83201e-20 2.96388e-20 1.46458e-36)
(0.0669928 -0.0127948 -2.76802e-18 -0.842623 -0.0803845 6.09143e-18 -1.64168e-19 -6.54793e-20 -4.27083e-36)
(0.0934276 -0.00592336 8.51212e-18 -0.930605 -0.105568 -3.70159e-19 4.5285e-20 -2.87109e-21 4.12588e-36)
(0.105862 0.0030405 -3.07182e-22 -1.00179 -0.121332 1.22453e-18 2.05633e-20 3.87116e-20 -1.31962e-36)
(0.106967 0.0122344 -4.92678e-18 -1.05412 -0.127889 6.27408e-18 0 0 0)
(0.104048 0.0162606 2.11302e-18 -1.08357 -0.126045 -1.09852e-18 1.33029e-19 -2.34261e-20 -4.43704e-38)
(0.0965738 0.0063941 2.20456e-18 -1.05918 -0.115171 -4.80081e-18 -1.33029e-19 2.34261e-20 4.43704e-38)
(0.0751962 -0.00641051 -2.11302e-18 -0.881936 -0.103293 2.73371e-18 0 0 0)
(0.0498107 -0.00183832 0 -0.894224 -0.0817011 -2.51838e-18 0 0 0)
(0.0336084 0.0105575 0 -1.2175 -0.0199172 0 0 0 0)
(0.000410125 0.0138548 0 -1.51058 0.057083 0 0 0 0)
(-0.0639988 0.0115451 -1.23832e-18 -1.82375 0.144598 -2.36734e-18 0 0 0)
(-0.282326 0.0381586 1.05821e-18 -2.23175 0.23895 4.17153e-18 4.45269e-20 5.79971e-21 -4.36493e-38)
(-0.410656 0.0617094 6.10538e-19 -2.73522 0.329138 -4.3691e-18 -4.45269e-20 -5.79971e-21 4.36493e-38)
(-0.36501 0.0505645 -6.11452e-19 -3.14692 0.389286 4.71108e-18 -1.4346e-19 3.30102e-20 -4.38681e-38)
(-0.393796 0.0367106 6.27774e-19 -3.5351 0.431428 -4.12319e-18 1.43455e-19 -3.3009e-20 4.38666e-38)
(-0.431876 0.024626 -3.13667e-19 -3.7285 0.444543 4.91412e-20 0 0 0)
(-0.433799 0.0156405 -5.34284e-21 -3.57804 0.423995 1.3682e-18 2.24352e-19 -2.58331e-20 -1.54817e-38)
(-0.408441 0.00952249 -1.38227e-19 -3.47695 0.398109 -7.49648e-22 4.94935e-20 -1.1539e-21 1.67499e-38)
(-0.381586 0.00474173 -7.86564e-20 -3.35297 0.369633 -1.68655e-21 4.62393e-20 -5.74587e-22 9.53131e-39)
(-0.353327 -0.000221954 5.12617e-21 -3.20606 0.340699 -3.78256e-20 -3.20079e-19 2.7561e-20 -1.08e-38)
(-0.324453 -0.0048928 8.39968e-20 -3.03227 0.31203 -3.44095e-20 0 0 0)
(-0.294515 -0.00869189 0 -2.84257 0.283152 -1.51454e-20 0 0 0)
(-0.264144 -0.0116039 0 -2.64339 0.253877 3.5957e-20 0 0 0)
(-0.233939 -0.0138062 0 -2.43935 0.224719 -2.90679e-20 0 0 0)
(-0.204146 -0.0153446 0 -2.23477 0.196069 -1.6971e-20 0 0 0)
(-0.174971 -0.0163871 0 -2.03321 0.168159 -3.9474e-20 0 0 0)
(-0.14643 -0.0172122 3.74019e-20 -1.83723 0.140943 8.33124e-20 0 0 0)
(-0.11839 -0.018079 -4.07771e-23 -1.64913 0.114043 1.68236e-20 5.76305e-19 -1.46878e-20 -4.52746e-39)
(-0.090686 -0.0190453 -7.441e-20 -1.47042 0.0869711 -8.39381e-22 1.0989e-20 2.30785e-21 9.01675e-39)
(-0.0632018 -0.0198792 4.14446e-23 -1.30202 0.0595021 -1.66469e-20 -5.87288e-19 1.23797e-20 -4.48981e-39)
(-0.0360199 -0.0202022 3.70087e-20 -1.14438 0.0319687 5.19814e-22 0 0 0)
(-0.00949468 -0.019751 -9.2865e-20 -0.997692 0.00523126 3.33947e-19 0 0 0)
(0.0157956 -0.018555 9.42412e-20 -0.862086 -0.0196817 -3.74617e-19 -1.19712e-18 5.76176e-21 3.3235e-40)
(0.0391052 -0.0168813 -2.15073e-20 -0.738659 -0.0418991 4.17299e-20 1.19707e-18 -5.76149e-21 -3.32334e-40)
(0.0593038 -0.014948 2.11613e-20 -0.630895 -0.0606623 -5.07505e-20 -1.1732e-18 -1.95246e-21 2.4854e-40)
(0.0751565 -0.0129473 1.14377e-19 -0.536286 -0.0759362 1.10226e-18 1.17324e-18 1.95253e-21 -2.48549e-40)
(0.0870011 -0.0109907 -4.29857e-19 -0.45641 -0.0880733 -1.60966e-18 0 0 0)
(0.0960483 -0.00899865 3.1968e-19 -0.389932 -0.0975201 -1.84103e-19 -2.2213e-18 -1.98697e-20 2.52537e-39)
(0.102829 -0.00690628 3.14466e-19 -0.330545 -0.104735 9.84356e-20 2.2213e-18 1.98697e-20 -2.52537e-39)
(0.107748 -0.00475016 1.05415e-19 -0.274641 -0.110144 1.40057e-18 0 0 0)
(0.111223 -0.00262954 3.1751e-20 -0.22014 -0.114044 1.04813e-18 2.06531e-18 2.67942e-20 -2.21434e-37)
(0.113657 -0.000608412 -3.92833e-19 -0.165029 -0.116811 -1.62619e-18 -5.50902e-20 2.94901e-22 1.90409e-37)
(0.115539 0.00118755 9.86907e-22 -0.107459 -0.118941 1.46124e-20 -5.60024e-20 -5.75612e-22 -4.7836e-40)
(0.117531 0.00245521 -1.21324e-18 -0.0458659 -0.120901 -3.6332e-20 -5.69679e-20 -1.19006e-21 5.88066e-37)
(0.120417 0.00264404 1.25258e-18 0.0203454 -0.123136 1.75833e-18 -3.73615e-18 -4.93654e-20 -5.05969e-37)
(0.125147 0.000851295 1.21697e-18 0.0903495 -0.125936 -4.07015e-18 3.617e-18 4.76696e-20 -6.91033e-37)
(0.133991 -0.00472914 -3.57496e-18 0.160537 -0.12879 2.32058e-18 -6.49465e-20 2.29225e-21 1.73281e-36)
(0.151635 -0.0200612 1.54892e-18 0.220333 -0.129986 -9.52143e-19 -4.99265e-18 -9.72089e-20 -1.7752e-36)
(0.176646 -0.0627796 2.2896e-18 0.244626 -0.128501 3.88213e-18 3.27956e-18 7.12911e-20 6.82978e-37)
(0.177971 -0.150541 -1.46808e-17 0.200876 -0.119598 -6.85074e-18 0 0 0)
(0.152528 -0.222882 -3.33264e-17 0.114963 -0.0769915 -3.09049e-18 -1.90938e-17 -2.66588e-18 -5.16755e-35)
(0.14086 -0.235048 -7.50514e-17 0.115746 -0.0555505 6.31405e-17 -4.20176e-17 -9.85824e-18 -3.60335e-35)
(0.128806 -0.211847 -4.94045e-17 0.190949 -0.0453232 2.97787e-16 -8.30581e-17 -2.86482e-17 1.14865e-33)
(0.102679 -0.175048 1.6934e-16 0.297974 -0.0233905 1.47859e-17 0 0 0)
(0.0567968 -0.13202 1.93536e-16 0.420896 0.0199084 4.70218e-17 7.21312e-17 4.13584e-17 -3.28925e-33)
(-0.0125625 -0.0844547 3.55564e-16 0.557785 0.0846628 -3.62225e-16 1.32438e-16 9.1492e-17 -3.28578e-33)
(-0.0960111 -0.0365048 1.68599e-18 0.706479 0.161768 1.03576e-16 1.34937e-16 9.84562e-17 -1.56377e-32)
(-0.188723 0.0055818 -9.89359e-16 0.871685 0.237913 1.01029e-15 1.18899e-16 9.66383e-17 6.22959e-33)
(-0.273909 0.050642 -3.22644e-16 1.03909 0.29418 3.75046e-18 -7.73155e-19 -7.07034e-19 1.63662e-34)
(-0.35776 0.0896922 9.01171e-18 1.23653 0.354259 -2.15052e-18 0 0 0)
(-0.43456 0.10815 -3.154e-16 1.41808 0.442992 -9.61385e-16 -1.07459e-19 1.65502e-19 5.72747e-34)
(-0.42866 0.15774 1.72513e-15 1.38234 0.431858 -1.67774e-15 7.20608e-17 -1.11316e-17 -7.1285e-32)
(-0.444964 0.189335 2.13885e-16 1.38277 0.425767 1.92838e-16 -1.02061e-16 -3.6866e-17 -3.38553e-32)
(-0.489573 0.201362 -6.33046e-16 1.52448 0.485377 2.76706e-16 2.71901e-16 1.47082e-16 -8.96296e-32)
(-0.515752 0.243589 9.72061e-17 1.70479 0.511531 4.95198e-16 0 0 0)
(-0.462086 0.344138 -9.21089e-17 1.89131 0.438797 2.96212e-16 3.18239e-16 1.93022e-16 -7.07706e-33)
(-0.257709 0.486117 -1.64391e-16 2.02121 0.202035 4.65814e-16 -4.26882e-16 -2.52324e-16 -5.01607e-33)
(0.123572 0.572807 -5.91602e-16 1.9805 -0.24116 6.81368e-16 -2.26649e-19 -1.35219e-19 -6.24514e-36)
(0.576548 0.380839 -1.65366e-17 1.62228 -0.797901 1.75054e-17 -6.2633e-16 -3.20942e-16 -4.86687e-33)
(0.688531 -0.279521 -3.43886e-17 1.04419 -0.986547 -5.19549e-17 3.62375e-16 1.35441e-16 1.94715e-34)
(0.0899809 -0.830196 1.16981e-17 1.17288 -0.400084 -1.79769e-17 7.88184e-18 -2.08492e-18 -1.04303e-34)
(-0.46529 -0.665602 1.53975e-18 2.37815 0.175362 1.41128e-18 -4.83539e-17 -5.22473e-18 1.12724e-36)
(-0.462544 -0.317056 5.7249e-19 3.89113 0.29547 -2.34162e-20 0 0 0)
(-0.22951 -0.244492 3.306e-19 1.74961 0.209181 9.71842e-22 0 0 0)
(-0.283407 -0.322559 -9.87485e-19 2.03823 0.273443 -1.33343e-18 -3.86208e-17 -2.68352e-19 -4.98749e-37)
(-0.42743 -0.27763 -5.05688e-18 2.7966 0.383533 -5.12263e-18 1.31121e-16 -8.40193e-18 9.93991e-36)
(-0.146429 -0.0142143 3.81553e-18 4.03769 0.113166 6.53e-18 2.62395e-16 -2.55747e-17 -5.78137e-35)
(0.666575 0.0903944 4.214e-17 5.39253 -0.678537 1.4907e-19 -5.32144e-19 5.66832e-20 -1.08975e-36)
(2.11114 -0.488677 5.08653e-17 7.6765 -2.17995 2.07056e-16 7.68219e-19 -5.9086e-17 4.03254e-33)
(1.28926 -0.33466 -4.58533e-16 4.16854 -1.23123 -4.12223e-16 -1.51669e-16 1.13853e-16 1.51365e-33)
(-0.14788 -0.0640896 7.04697e-17 -0.270452 0.0825255 -3.35427e-17 -1.40034e-16 1.01352e-16 -6.03188e-33)
(-0.262694 0.0382068 -2.63013e-17 -0.599147 0.238948 1.22104e-18 0 0 0)
(-0.311487 0.134754 -5.84683e-16 -0.624996 0.315782 -3.99863e-16 -1.16848e-16 8.04919e-17 -8.23204e-33)
(-0.340979 0.182097 -1.09888e-16 -0.613445 0.335336 -2.84093e-16 -1.90835e-16 1.3425e-16 -1.54814e-32)
(-0.331505 0.213448 -3.98614e-16 -0.564934 0.331559 -6.65509e-16 0 0 0)
(-0.330456 0.217695 2.92854e-16 -0.50959 0.334189 1.83216e-16 -8.58715e-17 6.36108e-17 -2.99777e-33)
(-0.329162 0.183303 5.18183e-16 -0.492076 0.324438 4.88129e-16 6.80199e-17 -5.0649e-17 4.02873e-33)
(-0.318255 0.137777 -4.69136e-16 -0.498708 0.319867 -4.27081e-16 1.0976e-18 -7.33384e-19 -1.13208e-37)
(-0.313649 0.0882231 -7.58421e-18 -0.538653 0.313687 -7.46487e-18 -1.05744e-18 7.06547e-19 1.09066e-37)
(-0.30296 0.0473848 4.26337e-16 -0.596788 0.306928 4.26207e-16 0 0 0)
(-0.285832 0.0150327 5.34023e-17 -0.671629 0.292934 -4.97229e-17 4.36337e-17 -1.9331e-17 -7.26447e-33)
(-0.254459 -0.00461495 8.69055e-17 -0.757527 0.265156 6.37604e-16 1.76118e-17 -5.56775e-18 4.57119e-33)
(-0.208126 -0.00571689 -2.8252e-16 -0.843656 0.221318 -3.08843e-16 -1.3467e-17 2.58733e-18 1.60052e-33)