/*--------------------------------*- C++ -*----------------------------------*\
| =========                 |                                                 |
| \\      /  F ield         | OpenFOAM: The Open Source CFD Toolbox           |
|  \\    /   O peration     | Version:  v1912                                 |
|   \\  /    A nd           | Website:  www.openfoam.com                      |
|    \\/     M anipulation  |                                                 |
\*---------------------------------------------------------------------------*/
FoamFile
{
    version     2.0;
    format      ascii;
    class       volScalarField;
    location    "10000";
    object      k;
}
// * * * * * * * * * * * * * * * * * * * * * * * * * * * * * * * * * * * * * //

dimensions      [0 2 -2 0 0 0 0];


internalField   nonuniform List<scalar> 
3000
(
0.00226647
0.0015676
0.000959422
6.56392e-05
0.000406797
0.00037301
0.000188005
9.61105e-05
5.48928e-05
3.73131e-05
2.70207e-05
2.40719e-05
2.73242e-05
2.77077e-05
2.44888e-05
1.78999e-05
9.38856e-06
2.50507e-06
1.89841e-07
1.91999e-06
4.87144e-06
5.70164e-06
4.9582e-06
4.3249e-06
4.41978e-06
5.05383e-06
5.78629e-06
6.40803e-06
6.81466e-06
6.94481e-06
6.60851e-06
5.68519e-06
4.39018e-06
3.19852e-06
2.49934e-06
2.49966e-06
4.401e-06
1.26115e-05
2.38888e-05
3.63512e-05
4.75629e-05
5.52714e-05
5.80771e-05
5.57257e-05
4.88351e-05
3.86371e-05
2.75459e-05
1.77787e-05
1.04656e-05
5.69747e-06
2.91642e-06
1.50803e-06
8.28941e-07
5.4423e-07
4.56279e-07
4.26984e-07
4.08128e-07
5.26641e-07
1.21631e-06
4.28639e-06
1.25529e-05
3.01401e-05
6.24467e-05
0.000115718
0.000196286
0.00030954
0.00045885
0.00064468
0.000864024
0.00110999
0.00137137
0.00163216
0.00187028
0.00205194
0.00212104
0.0020067
0.00169396
0.00137639
0.00121168
0.00115951
0.00115958
0.00118154
0.00120145
0.00118824
0.00110558
0.000946033
0.000728532
0.000486975
0.000263635
9.46963e-05
3.56772e-06
5.95989e-05
0.000316233
0.000943324
0.00218834
0.00423972
0.00662788
0.00784293
0.00669864
0.00415149
0.000891643
0.000652242
0.000446266
0.000174577
8.96208e-05
4.56627e-05
2.35195e-05
1.25404e-05
7.33915e-06
4.97966e-06
3.6879e-06
3.36373e-06
3.67147e-06
3.58391e-06
3.04111e-06
2.17485e-06
1.17084e-06
4.10751e-07
1.63685e-07
3.67623e-07
7.06704e-07
8.02123e-07
7.31355e-07
6.40973e-07
6.40991e-07
7.16694e-07
8.06959e-07
8.82916e-07
9.28667e-07
9.36685e-07
8.92185e-07
7.97181e-07
6.95585e-07
7.03584e-07
9.42778e-07
1.52721e-06
2.60545e-06
4.24518e-06
5.97822e-06
7.45509e-06
8.37461e-06
8.5746e-06
8.06842e-06
7.04027e-06
5.71985e-06
4.41314e-06
3.22558e-06
2.28489e-06
1.6284e-06
1.22641e-06
1.02312e-06
9.67832e-07
9.90446e-07
1.05603e-06
1.34837e-06
1.81354e-06
2.59838e-06
4.06542e-06
6.81122e-06
1.17463e-05
1.99873e-05
3.27363e-05
5.10854e-05
7.57758e-05
0.000106951
0.000143937
0.000185117
0.000227925
0.000268961
0.000304196
0.000329245
0.000339777
0.000332112
0.000304395
0.000259249
0.000207524
0.000176169
0.000161045
0.00015467
0.000151184
0.00014857
0.000145375
0.000140009
0.000129903
0.000114147
9.37373e-05
7.06861e-05
4.78083e-05
2.79275e-05
1.31084e-05
5.12506e-06
1.3662e-05
4.14993e-05
9.94448e-05
0.000197057
0.000335502
0.00051899
0.000943378
0.0013149
0.00120418
0.000379869
0.00035187
0.000311598
0.000204213
0.000122365
4.17982e-05
6.96535e-06
3.24524e-06
1.86684e-06
1.3099e-06
1.0635e-06
1.01527e-06
1.05061e-06
9.885e-07
8.78495e-07
7.68795e-07
6.74662e-07
6.27258e-07
6.277e-07
6.40128e-07
6.07432e-07
4.81423e-07
3.47518e-07
3.02962e-07
3.21889e-07
3.64012e-07
4.17844e-07
4.80522e-07
5.51042e-07
6.38255e-07
7.52759e-07
9.07704e-07
1.12094e-06
1.40969e-06
1.7726e-06
2.19044e-06
2.62529e-06
3.01594e-06
3.28818e-06
3.41538e-06
3.41068e-06
3.32036e-06
3.21609e-06
3.16569e-06
3.2076e-06
3.29753e-06
3.42645e-06
3.59359e-06
3.80459e-06
4.08415e-06
4.4931e-06
5.1552e-06
6.22892e-06
7.69163e-06
9.48046e-06
1.19232e-05
1.51143e-05
1.92198e-05
2.44031e-05
3.07961e-05
3.84467e-05
4.72704e-05
5.70026e-05
6.71714e-05
7.70947e-05
8.59108e-05
9.26577e-05
9.6392e-05
9.63536e-05
9.21292e-05
8.38019e-05
7.211e-05
5.84788e-05
4.49709e-05
3.41789e-05
2.8764e-05
2.65786e-05
2.63153e-05
2.63905e-05
2.62177e-05
2.5926e-05
2.55298e-05
2.49426e-05
2.3977e-05
2.26618e-05
2.11048e-05
1.9429e-05
1.77917e-05
1.63513e-05
1.47121e-05
1.38422e-05
1.52898e-05
1.87462e-05
2.42343e-05
3.13472e-05
3.96073e-05
5.19704e-05
0.000114981
0.000291675
0.000391951
0.000130995
0.000149197
0.000177532
0.000167531
0.000127764
8.56422e-05
2.41418e-05
4.14895e-06
1.60681e-06
9.66871e-07
8.25564e-07
7.73199e-07
8.38273e-07
9.1669e-07
1.00975e-06
1.10945e-06
1.1902e-06
1.23705e-06
1.23531e-06
1.17506e-06
1.05364e-06
8.83981e-07
6.99433e-07
6.68843e-07
7.69857e-07
8.72939e-07
9.83101e-07
1.10393e-06
1.24401e-06
1.40868e-06
1.60053e-06
1.81957e-06
2.06357e-06
2.32577e-06
2.59404e-06
2.8563e-06
3.10318e-06
3.33149e-06
3.54723e-06
3.76536e-06
4.00295e-06
4.2741e-06
4.5858e-06
4.93788e-06
5.32901e-06
5.77172e-06
6.27688e-06
6.86056e-06
7.54235e-06
8.34277e-06
9.27767e-06
1.03387e-05
1.15243e-05
1.29724e-05
1.48008e-05
1.70125e-05
1.96005e-05
2.25285e-05
2.57234e-05
2.9068e-05
3.23968e-05
3.54982e-05
3.81231e-05
4.0004e-05
4.08864e-05
4.05693e-05
3.89532e-05
3.60852e-05
3.21877e-05
2.76484e-05
2.2979e-05
1.87307e-05
1.53644e-05
1.31522e-05
1.21017e-05
1.17256e-05
1.15662e-05
1.17183e-05
1.20998e-05
1.25935e-05
1.31723e-05
1.38262e-05
1.4536e-05
1.52581e-05
1.59538e-05
1.66007e-05
1.71576e-05
1.75113e-05
1.75155e-05
1.71457e-05
1.73756e-05
1.78994e-05
1.84541e-05
1.89061e-05
1.91083e-05
1.90098e-05
1.90283e-05
2.25022e-05
6.52194e-05
0.000114445
4.25627e-05
5.50856e-05
8.59278e-05
0.000112287
0.000109962
9.01226e-05
6.81419e-05
1.68464e-05
4.24131e-06
1.73366e-06
1.33764e-06
1.1293e-06
1.21944e-06
1.35625e-06
1.48466e-06
1.60037e-06
1.67953e-06
1.71156e-06
1.69043e-06
1.61945e-06
1.51603e-06
1.4143e-06
1.36028e-06
1.40416e-06
1.51559e-06
1.62896e-06
1.74981e-06
1.88522e-06
2.0397e-06
2.21378e-06
2.40512e-06
2.60985e-06
2.82343e-06
3.04118e-06
3.25947e-06
3.47758e-06
3.69762e-06
3.92417e-06
4.16277e-06
4.41871e-06
4.69583e-06
4.9976e-06
5.3244e-06
5.67874e-06
6.06677e-06
6.50282e-06
6.99419e-06
7.5497e-06
8.1791e-06
8.89202e-06
9.69646e-06
1.06057e-05
1.16606e-05
1.28792e-05
1.42516e-05
1.57473e-05
1.73136e-05
1.88759e-05
2.03427e-05
2.16108e-05
2.25746e-05
2.31364e-05
2.32193e-05
2.27819e-05
2.18324e-05
2.0439e-05
1.87303e-05
1.68826e-05
1.50909e-05
1.35296e-05
1.23156e-05
1.14832e-05
1.09819e-05
1.07025e-05
1.05349e-05
1.04021e-05
1.03512e-05
1.04834e-05
1.08318e-05
1.13312e-05
1.19339e-05
1.26138e-05
1.33501e-05
1.41027e-05
1.48134e-05
1.54855e-05
1.60091e-05
1.61686e-05
1.6143e-05
1.63514e-05
1.6734e-05
1.70445e-05
1.71633e-05
1.70433e-05
1.66514e-05
1.60254e-05
1.53853e-05
1.51041e-05
2.19807e-05
3.5531e-05
1.80794e-05
2.23747e-05
3.8935e-05
6.6165e-05
8.18547e-05
8.03488e-05
7.014e-05
5.87216e-05
1.90624e-05
4.67298e-06
2.69833e-06
1.59024e-06
1.56597e-06
1.70778e-06
1.83167e-06
1.93863e-06
2.01454e-06
2.04818e-06
2.03516e-06
1.98183e-06
1.91294e-06
1.86331e-06
1.85756e-06
1.90633e-06
2.00602e-06
2.11522e-06
2.23468e-06
2.36732e-06
2.51349e-06
2.67153e-06
2.83867e-06
3.01212e-06
3.18969e-06
3.37021e-06
3.55386e-06
3.74206e-06
3.93699e-06
4.14102e-06
4.35716e-06
4.58819e-06
4.83689e-06
5.10447e-06
5.397e-06
5.7199e-06
6.07872e-06
6.46979e-06
6.90148e-06
7.38544e-06
7.93377e-06
8.55833e-06
9.26849e-06
1.00637e-05
1.09317e-05
1.18588e-05
1.28175e-05
1.37664e-05
1.46524e-05
1.54156e-05
1.59978e-05
1.63503e-05
1.64425e-05
1.62672e-05
1.58447e-05
1.52229e-05
1.44717e-05
1.36743e-05
1.29139e-05
1.22577e-05
1.1744e-05
1.13774e-05
1.1133e-05
1.09664e-05
1.08258e-05
1.0666e-05
1.05003e-05
1.03431e-05
1.02579e-05
1.03243e-05
1.05814e-05
1.09884e-05
1.14968e-05
1.20644e-05
1.26737e-05
1.32898e-05
1.38241e-05
1.43202e-05
1.4526e-05
1.46279e-05
1.48288e-05
1.51162e-05
1.53848e-05
1.55197e-05
1.54541e-05
1.51688e-05
1.46659e-05
1.40087e-05
1.33867e-05
1.30043e-05
1.37681e-05
1.64376e-05
1.19304e-05
1.29204e-05
1.93008e-05
3.65015e-05
5.46012e-05
6.32791e-05
6.28595e-05
5.79718e-05
5.02126e-05
3.19883e-05
8.85297e-06
3.27081e-06
1.89876e-06
1.95151e-06
2.06991e-06
2.18966e-06
2.28797e-06
2.34361e-06
2.34765e-06
2.30213e-06
2.23053e-06
2.17625e-06
2.17543e-06
2.25448e-06
2.37582e-06
2.51191e-06
2.66093e-06
2.82375e-06
3.00031e-06
3.1899e-06
3.39158e-06
3.60438e-06
3.82737e-06
4.05958e-06
4.30021e-06
4.54861e-06
4.80457e-06
5.06815e-06
5.34038e-06
5.6219e-06
5.91306e-06
6.21301e-06
6.5236e-06
6.8458e-06
7.18203e-06
7.53423e-06
7.90999e-06
8.31721e-06
8.76221e-06
9.24959e-06
9.781e-06
1.035e-05
1.09478e-05
1.15542e-05
1.21404e-05
1.26711e-05
1.31096e-05
1.34238e-05
1.35929e-05
1.36117e-05
1.34918e-05
1.32605e-05
1.2956e-05
1.26211e-05
1.22962e-05
1.20125e-05
1.17877e-05
1.16234e-05
1.15063e-05
1.14162e-05
1.13301e-05
1.1225e-05
1.1069e-05
1.088e-05
1.06732e-05
1.04772e-05
1.03481e-05
1.0353e-05
1.05242e-05
1.08397e-05
1.12532e-05
1.16974e-05
1.21674e-05
1.26321e-05
1.29864e-05
1.32423e-05
1.3358e-05
1.35709e-05
1.3784e-05
1.39754e-05
1.40973e-05
1.40792e-05
1.38821e-05
1.35054e-05
1.29717e-05
1.23515e-05
1.18001e-05
1.14568e-05
1.14113e-05
1.17544e-05
9.95655e-06
1.00904e-05
1.20794e-05
2.04756e-05
3.38339e-05
4.49784e-05
5.0473e-05
5.11074e-05
4.85881e-05
4.34222e-05
4.0858e-05
1.52144e-05
6.24724e-06
3.12862e-06
2.52985e-06
2.62714e-06
2.74182e-06
2.85938e-06
2.92551e-06
2.91743e-06
2.84872e-06
2.79528e-06
2.83066e-06
2.97446e-06
3.17489e-06
3.38563e-06
3.60543e-06
3.83519e-06
4.0761e-06
4.32893e-06
4.59353e-06
4.86821e-06
5.14996e-06
5.43532e-06
5.72138e-06
6.00663e-06
6.29133e-06
6.57716e-06
6.86614e-06
7.15922e-06
7.45591e-06
7.75392e-06
8.04994e-06
8.34005e-06
8.6266e-06
8.91502e-06
9.21268e-06
9.52382e-06
9.84981e-06
1.01879e-05
1.05322e-05
1.08908e-05
1.12493e-05
1.15933e-05
1.19029e-05
1.21577e-05
1.23407e-05
1.24434e-05
1.24688e-05
1.24304e-05
1.23483e-05
1.22459e-05
1.21458e-05
1.20653e-05
1.20129e-05
1.19869e-05
1.1976e-05
1.19618e-05
1.19275e-05
1.18642e-05
1.1769e-05
1.16229e-05
1.13783e-05
1.11419e-05
1.08978e-05
1.06752e-05
1.0509e-05
1.04724e-05
1.05703e-05
1.07987e-05
1.11255e-05
1.1454e-05
1.17822e-05
1.20588e-05
1.22695e-05
1.24028e-05
1.25674e-05
1.27206e-05
1.28388e-05
1.29079e-05
1.2895e-05
1.27545e-05
1.24674e-05
1.20466e-05
1.15251e-05
1.09692e-05
1.04986e-05
1.0207e-05
1.00831e-05
1.00457e-05
8.86069e-06
8.83488e-06
9.39322e-06
1.28311e-05
2.05136e-05
2.95717e-05
3.67486e-05
4.07813e-05
4.19016e-05
4.07897e-05
3.92833e-05
3.50826e-05
3.13044e-05
1.93725e-05
8.14907e-06
5.8907e-06
4.71364e-06
4.41792e-06
4.49511e-06
4.51689e-06
4.35172e-06
4.11951e-06
4.10153e-06
4.28374e-06
4.55453e-06
4.82e-06
5.07862e-06
5.33098e-06
5.5808e-06
5.83291e-06
6.08952e-06
6.34767e-06
6.60136e-06
6.84514e-06
7.07633e-06
7.29594e-06
7.50963e-06
7.72586e-06
7.95443e-06
8.20292e-06
8.47493e-06
8.76276e-06
9.04985e-06
9.31559e-06
9.55454e-06
9.76473e-06
9.95599e-06
1.01414e-05
1.03338e-05
1.05304e-05
1.07361e-05
1.09601e-05
1.1213e-05
1.1437e-05
1.16213e-05
1.1755e-05
1.18334e-05
1.18612e-05
1.18601e-05
1.18421e-05
1.18203e-05
1.18085e-05
1.18175e-05
1.18525e-05
1.19101e-05
1.19753e-05
1.20226e-05
1.20233e-05
1.19661e-05
1.18589e-05
1.17514e-05
1.15121e-05
1.12818e-05
1.10745e-05
1.08956e-05
1.07514e-05
1.06281e-05
1.06052e-05
1.06633e-05
1.08176e-05
1.10478e-05
1.12839e-05
1.14704e-05
1.15923e-05
1.1715e-05
1.18095e-05
1.1879e-05
1.19211e-05
1.19244e-05
1.1875e-05
1.17492e-05
1.1519e-05
1.118e-05
1.07522e-05
1.02701e-05
9.78926e-06
9.39802e-06
9.15834e-06
9.04431e-06
8.96715e-06
7.9958e-06
7.95491e-06
8.12581e-06
9.39146e-06
1.3068e-05
1.87423e-05
2.47446e-05
2.96298e-05
3.2747e-05
3.4129e-05
3.44163e-05
3.35058e-05
3.20376e-05
2.94125e-05
2.59643e-05
2.36253e-05
1.71357e-05
1.12989e-05
1.00564e-05
9.55053e-06
8.60157e-06
6.89515e-06
6.10561e-06
6.01512e-06
6.20743e-06
6.40454e-06
6.62406e-06
6.81999e-06
6.99975e-06
7.2004e-06
7.4329e-06
7.67477e-06
7.91845e-06
8.16155e-06
8.40725e-06
8.66072e-06
8.92155e-06
9.18207e-06
9.43006e-06
9.67037e-06
9.92475e-06
1.02254e-05
1.05488e-05
1.08758e-05
1.11229e-05
1.12871e-05
1.13776e-05
1.14129e-05
1.14203e-05
1.14306e-05
1.14625e-05
1.14854e-05
1.15513e-05
1.16047e-05
1.16441e-05
1.16622e-05
1.16526e-05
1.16206e-05
1.15627e-05
1.14912e-05
1.14258e-05
1.13651e-05
1.1314e-05
1.12765e-05
1.12535e-05
1.1241e-05
1.12256e-05
1.11844e-05
1.10966e-05
1.0963e-05
1.07913e-05
1.06091e-05
1.05405e-05
1.05371e-05
1.05794e-05
1.06461e-05
1.07041e-05
1.07723e-05
1.08624e-05
1.09716e-05
1.10668e-05
1.1162e-05
1.1227e-05
1.12613e-05
1.12642e-05
1.12367e-05
1.11843e-05
1.11084e-05
1.10005e-05
1.08486e-05
1.0637e-05
1.03506e-05
9.99301e-06
9.58552e-06
9.15822e-06
8.7535e-06
8.43444e-06
8.24209e-06
8.14899e-06
8.08214e-06
7.22299e-06
7.19108e-06
7.26662e-06
7.73787e-06
9.27984e-06
1.21952e-05
1.60345e-05
1.99892e-05
2.33605e-05
2.5813e-05
2.7394e-05
2.81466e-05
2.82483e-05
2.7708e-05
2.66398e-05
2.54885e-05
2.39219e-05
2.24348e-05
2.165e-05
2.09691e-05
1.92489e-05
1.49841e-05
1.43724e-05
1.43467e-05
1.41131e-05
1.3609e-05
1.31046e-05
1.27003e-05
1.235e-05
1.20423e-05
1.17994e-05
1.16629e-05
1.15766e-05
1.15377e-05
1.15693e-05
1.1698e-05
1.19386e-05
1.22862e-05
1.27119e-05
1.31681e-05
1.35997e-05
1.39417e-05
1.41679e-05
1.43087e-05
1.43771e-05
1.43995e-05
1.43856e-05
1.43352e-05
1.42419e-05
1.41007e-05
1.39201e-05
1.37222e-05
1.34336e-05
1.31481e-05
1.28944e-05
1.2678e-05
1.24927e-05
1.23342e-05
1.21843e-05
1.2034e-05
1.18837e-05
1.17348e-05
1.15891e-05
1.14482e-05
1.13126e-05
1.11817e-05
1.10542e-05
1.09277e-05
1.08017e-05
1.0702e-05
1.06188e-05
1.0586e-05
1.06108e-05
1.06821e-05
1.07821e-05
1.08877e-05
1.09855e-05
1.1075e-05
1.11354e-05
1.11581e-05
1.11432e-05
1.10906e-05
1.10009e-05
1.0881e-05
1.07387e-05
1.05798e-05
1.04091e-05
1.02277e-05
1.00279e-05
9.80083e-06
9.53643e-06
9.22733e-06
8.88001e-06
8.5126e-06
8.14784e-06
7.81561e-06
7.56006e-06
7.40888e-06
7.3371e-06
7.28687e-06
6.49461e-06
6.47423e-06
6.52531e-06
6.73922e-06
7.35911e-06
8.65057e-06
1.06438e-05
1.30925e-05
1.56181e-05
1.79122e-05
1.98293e-05
2.12978e-05
2.23151e-05
2.28915e-05
2.30577e-05
2.29114e-05
2.2467e-05
2.18491e-05
2.12735e-05
2.08188e-05
2.05829e-05
2.06677e-05
2.07042e-05
2.06673e-05
2.05807e-05
2.04322e-05
2.01349e-05
1.97078e-05
1.92356e-05
1.87509e-05
1.82515e-05
1.77498e-05
1.72656e-05
1.68222e-05
1.64427e-05
1.61454e-05
1.59408e-05
1.58306e-05
1.58099e-05
1.58648e-05
1.59584e-05
1.6033e-05
1.60583e-05
1.60304e-05
1.59702e-05
1.58966e-05
1.58235e-05
1.57593e-05
1.57075e-05
1.56673e-05
1.5634e-05
1.56069e-05
1.55795e-05
1.55191e-05
1.54121e-05
1.52596e-05
1.50685e-05
1.48491e-05
1.46127e-05
1.43692e-05
1.41261e-05
1.38889e-05
1.36615e-05
1.34462e-05
1.32448e-05
1.30583e-05
1.28864e-05
1.27292e-05
1.25917e-05
1.24689e-05
1.2356e-05
1.22576e-05
1.21708e-05
1.20893e-05
1.20062e-05
1.19136e-05
1.18095e-05
1.16794e-05
1.15107e-05
1.13053e-05
1.10708e-05
1.08159e-05
1.05473e-05
1.02736e-05
1.00017e-05
9.73515e-06
9.47604e-06
9.22296e-06
8.96851e-06
8.70536e-06
8.42685e-06
8.12893e-06
7.81724e-06
7.50469e-06
7.20647e-06
6.9423e-06
6.74267e-06
6.6267e-06
6.57363e-06
6.53895e-06
5.79216e-06
5.78144e-06
5.82356e-06
5.95377e-06
6.23314e-06
6.77255e-06
7.66097e-06
8.8884e-06
1.03403e-05
1.18726e-05
1.33733e-05
1.47559e-05
1.59632e-05
1.69574e-05
1.77076e-05
1.82092e-05
1.84702e-05
1.85244e-05
1.84361e-05
1.82617e-05
1.80384e-05
1.77861e-05
1.74933e-05
1.71902e-05
1.69382e-05
1.67323e-05
1.6565e-05
1.64269e-05
1.63082e-05
1.62018e-05
1.61023e-05
1.6004e-05
1.59017e-05
1.57916e-05
1.56724e-05
1.55454e-05
1.54134e-05
1.52795e-05
1.51443e-05
1.50023e-05
1.48435e-05
1.46741e-05
1.4507e-05
1.4351e-05
1.42121e-05
1.40945e-05
1.40002e-05
1.39296e-05
1.38818e-05
1.38551e-05
1.3847e-05
1.38547e-05
1.38761e-05
1.39074e-05
1.39419e-05
1.3972e-05
1.39935e-05
1.40032e-05
1.39993e-05
1.39812e-05
1.39496e-05
1.39055e-05
1.38506e-05
1.37868e-05
1.37158e-05
1.36389e-05
1.35551e-05
1.34581e-05
1.33444e-05
1.32125e-05
1.30633e-05
1.28965e-05
1.27117e-05
1.25092e-05
1.22904e-05
1.20576e-05
1.18147e-05
1.15108e-05
1.11486e-05
1.07579e-05
1.03614e-05
9.97276e-06
9.59898e-06
9.24602e-06
8.91661e-06
8.6105e-06
8.32616e-06
8.06001e-06
7.80473e-06
7.55408e-06
7.30296e-06
7.04837e-06
6.7937e-06
6.54688e-06
6.31711e-06
6.11689e-06
5.96718e-06
5.8814e-06
5.84348e-06
5.82116e-06
5.11809e-06
5.11402e-06
5.14928e-06
5.24291e-06
5.40099e-06
5.64769e-06
6.02487e-06
6.55947e-06
7.24091e-06
8.03418e-06
8.90105e-06
9.8008e-06
1.06957e-05
1.15513e-05
1.23284e-05
1.29933e-05
1.35229e-05
1.39054e-05
1.4145e-05
1.42602e-05
1.42695e-05
1.4188e-05
1.40261e-05
1.38162e-05
1.3622e-05
1.3446e-05
1.32878e-05
1.31454e-05
1.30167e-05
1.28992e-05
1.27901e-05
1.2686e-05
1.25834e-05
1.24787e-05
1.23688e-05
1.22511e-05
1.21244e-05
1.19883e-05
1.18431e-05
1.16908e-05
1.15391e-05
1.13948e-05
1.12606e-05
1.11385e-05
1.10297e-05
1.09349e-05
1.08541e-05
1.07871e-05
1.07329e-05
1.06907e-05
1.06592e-05
1.06372e-05
1.06236e-05
1.06182e-05
1.06218e-05
1.06324e-05
1.0647e-05
1.06639e-05
1.06812e-05
1.06973e-05
1.07107e-05
1.07199e-05
1.07238e-05
1.0721e-05
1.07103e-05
1.06871e-05
1.06505e-05
1.06023e-05
1.05417e-05
1.04684e-05
1.03819e-05
1.02822e-05
1.01699e-05
1.00462e-05
9.91285e-06
9.77233e-06
9.62694e-06
9.43245e-06
9.18485e-06
8.90413e-06
8.60764e-06
8.30822e-06
8.01419e-06
7.73301e-06
7.46886e-06
7.22297e-06
6.99499e-06
6.78283e-06
6.58174e-06
6.38772e-06
6.19747e-06
6.00891e-06
5.8238e-06
5.64678e-06
5.48334e-06
5.34154e-06
5.23582e-06
5.1758e-06
5.14928e-06
5.13592e-06
4.4923e-06
4.49263e-06
4.52062e-06
4.58855e-06
4.69178e-06
4.82709e-06
5.00323e-06
5.23228e-06
5.51956e-06
5.86395e-06
6.26195e-06
6.7059e-06
7.18562e-06
7.68864e-06
8.19468e-06
8.67977e-06
9.12067e-06
9.49587e-06
9.78982e-06
9.99794e-06
1.01197e-05
1.01565e-05
1.01114e-05
1.00123e-05
9.9172e-06
9.82838e-06
9.74527e-06
9.6669e-06
9.59209e-06
9.51951e-06
9.44782e-06
9.37564e-06
9.30161e-06
9.22456e-06
9.1436e-06
9.05821e-06
8.96841e-06
8.87465e-06
8.77805e-06
8.68185e-06
8.58909e-06
8.5008e-06
8.41781e-06
8.34075e-06
8.27e-06
8.20576e-06
8.14801e-06
8.09656e-06
8.0511e-06
8.01121e-06
7.97638e-06
7.9461e-06
7.91984e-06
7.8973e-06
7.87842e-06
7.86355e-06
7.85226e-06
7.84328e-06
7.83547e-06
7.82774e-06
7.81905e-06
7.80839e-06
7.79465e-06
7.77659e-06
7.75307e-06
7.72518e-06
7.69255e-06
7.65499e-06
7.61235e-06
7.56464e-06
7.51202e-06
7.4549e-06
7.39393e-06
7.33e-06
7.26423e-06
7.19798e-06
7.13215e-06
7.04268e-06
6.92448e-06
6.78516e-06
6.63205e-06
6.47135e-06
6.30777e-06
6.14625e-06
5.99023e-06
5.84143e-06
5.7006e-06
5.56729e-06
5.43933e-06
5.31478e-06
5.19198e-06
5.0698e-06
4.94936e-06
4.83355e-06
4.72601e-06
4.63229e-06
4.56264e-06
4.52417e-06
4.50802e-06
4.50165e-06
3.90954e-06
3.9154e-06
3.94275e-06
3.99999e-06
4.0805e-06
4.1758e-06
4.28413e-06
4.40731e-06
4.54721e-06
4.70589e-06
4.88594e-06
5.08866e-06
5.31417e-06
5.56106e-06
5.8231e-06
6.09013e-06
6.34978e-06
6.58772e-06
6.79016e-06
6.94833e-06
7.05578e-06
7.10811e-06
7.10331e-06
7.05863e-06
7.0142e-06
6.97143e-06
6.93003e-06
6.88956e-06
6.84954e-06
6.80942e-06
6.76866e-06
6.72676e-06
6.68329e-06
6.63789e-06
6.59039e-06
6.5408e-06
6.48927e-06
6.43661e-06
6.38448e-06
6.33386e-06
6.28513e-06
6.23858e-06
6.19448e-06
6.15302e-06
6.11428e-06
6.07831e-06
6.04507e-06
6.01445e-06
5.9863e-06
5.96043e-06
5.93662e-06
5.91459e-06
5.89409e-06
5.87485e-06
5.85667e-06
5.83938e-06
5.82286e-06
5.80695e-06
5.79136e-06
5.77574e-06
5.75966e-06
5.74266e-06
5.72441e-06
5.70468e-06
5.68332e-06
5.66022e-06
5.63535e-06
5.60871e-06
5.58037e-06
5.55049e-06
5.51931e-06
5.48716e-06
5.45444e-06
5.42166e-06
5.3894e-06
5.35834e-06
5.32881e-06
5.2891e-06
5.23601e-06
5.17227e-06
5.10064e-06
5.02355e-06
4.94299e-06
4.86132e-06
4.78037e-06
4.70119e-06
4.62441e-06
4.55003e-06
4.47702e-06
4.40446e-06
4.3315e-06
4.25757e-06
4.18344e-06
4.11112e-06
4.04318e-06
3.98369e-06
3.94002e-06
3.91763e-06
3.91075e-06
3.91128e-06
3.41589e-06
3.42387e-06
3.45019e-06
3.50158e-06
3.57147e-06
3.65102e-06
3.73611e-06
3.82516e-06
3.91746e-06
4.01362e-06
4.11549e-06
4.22478e-06
4.34298e-06
4.47105e-06
4.60759e-06
4.74901e-06
4.88996e-06
5.02319e-06
5.14067e-06
5.23624e-06
5.30462e-06
5.34163e-06
5.34476e-06
5.32357e-06
5.30181e-06
5.28034e-06
5.25896e-06
5.23749e-06
5.21569e-06
5.19334e-06
5.17024e-06
5.14622e-06
5.12116e-06
5.09498e-06
5.06782e-06
5.04004e-06
5.01218e-06
4.98468e-06
4.95769e-06
4.93137e-06
4.90587e-06
4.88132e-06
4.85784e-06
4.83549e-06
4.81434e-06
4.79438e-06
4.77561e-06
4.75797e-06
4.74139e-06
4.72578e-06
4.71101e-06
4.69695e-06
4.68346e-06
4.67039e-06
4.65758e-06
4.64488e-06
4.63216e-06
4.61928e-06
4.60614e-06
4.59262e-06
4.57864e-06
4.5641e-06
4.54896e-06
4.53315e-06
4.51667e-06
4.4995e-06
4.48167e-06
4.46324e-06
4.44429e-06
4.42496e-06
4.4054e-06
4.38583e-06
4.36646e-06
4.34759e-06
4.32952e-06
4.31259e-06
4.29691e-06
4.27578e-06
4.24717e-06
4.21231e-06
4.17247e-06
4.12877e-06
4.08214e-06
4.03386e-06
3.98495e-06
3.9361e-06
3.88776e-06
3.84004e-06
3.79241e-06
3.74438e-06
3.69552e-06
3.64554e-06
3.59514e-06
3.54586e-06
3.49964e-06
3.45932e-06
3.42998e-06
3.41541e-06
3.41188e-06
3.41464e-06
3.04848e-06
3.05293e-06
3.07178e-06
3.11089e-06
3.16573e-06
3.22923e-06
3.29734e-06
3.36765e-06
3.43846e-06
3.50928e-06
3.58084e-06
3.65396e-06
3.72954e-06
3.80836e-06
3.89001e-06
3.97303e-06
4.05506e-06
4.1326e-06
4.20149e-06
4.25836e-06
4.30008e-06
4.324e-06
4.32842e-06
4.31863e-06
4.30806e-06
4.29733e-06
4.28634e-06
4.275e-06
4.26325e-06
4.251e-06
4.23824e-06
4.22498e-06
4.21125e-06
4.19726e-06
4.18305e-06
4.16869e-06
4.15426e-06
4.13985e-06
4.12558e-06
4.11152e-06
4.09777e-06
4.08441e-06
4.07151e-06
4.05912e-06
4.04727e-06
4.03597e-06
4.0252e-06
4.01496e-06
4.00519e-06
3.99585e-06
3.98685e-06
3.97813e-06
3.9696e-06
3.96117e-06
3.95274e-06
3.94423e-06
3.93553e-06
3.92659e-06
3.91731e-06
3.90765e-06
3.89756e-06
3.88701e-06
3.87597e-06
3.86446e-06
3.85247e-06
3.84005e-06
3.82725e-06
3.81414e-06
3.8008e-06
3.78734e-06
3.77388e-06
3.76059e-06
3.7476e-06
3.73511e-06
3.7233e-06
3.71237e-06
3.70234e-06
3.68815e-06
3.66816e-06
3.64314e-06
3.61391e-06
3.58122e-06
3.54576e-06
3.50852e-06
3.4704e-06
3.43204e-06
3.39396e-06
3.35642e-06
3.31922e-06
3.2822e-06
3.24529e-06
3.2086e-06
3.17291e-06
3.13949e-06
3.10958e-06
3.08444e-06
3.06583e-06
3.05488e-06
3.04967e-06
3.04945e-06
2.83609e-06
2.8324e-06
2.83798e-06
2.85762e-06
2.88973e-06
2.93013e-06
2.97597e-06
3.02512e-06
3.07577e-06
3.12696e-06
3.1787e-06
3.23113e-06
3.28453e-06
3.33916e-06
3.39458e-06
3.44983e-06
3.50352e-06
3.55367e-06
3.59793e-06
3.63446e-06
3.66145e-06
3.67734e-06
3.68101e-06
3.67547e-06
3.66937e-06
3.6631e-06
3.65664e-06
3.64993e-06
3.64295e-06
3.63568e-06
3.6281e-06
3.62022e-06
3.61205e-06
3.60362e-06
3.59497e-06
3.58614e-06
3.57719e-06
3.56818e-06
3.55916e-06
3.5502e-06
3.54135e-06
3.53265e-06
3.52417e-06
3.51591e-06
3.50791e-06
3.50018e-06
3.4927e-06
3.48548e-06
3.47848e-06
3.47168e-06
3.46503e-06
3.45849e-06
3.45201e-06
3.44552e-06
3.43898e-06
3.43233e-06
3.42552e-06
3.41849e-06
3.41121e-06
3.40363e-06
3.39574e-06
3.38752e-06
3.37895e-06
3.37006e-06
3.36085e-06
3.35136e-06
3.34164e-06
3.33172e-06
3.32169e-06
3.31163e-06
3.30162e-06
3.29177e-06
3.28219e-06
3.27301e-06
3.26435e-06
3.25634e-06
3.24896e-06
3.23781e-06
3.22141e-06
3.20048e-06
3.17581e-06
3.14821e-06
3.11852e-06
3.08785e-06
3.05719e-06
3.02734e-06
2.99893e-06
2.97237e-06
2.94781e-06
2.92548e-06
2.90583e-06
2.8895e-06
2.87743e-06
2.87029e-06
2.8679e-06
2.86847e-06
2.86753e-06
2.861e-06
2.85058e-06
2.84339e-06
2.93758e-06
2.91754e-06
2.89682e-06
2.87857e-06
2.86714e-06
2.8641e-06
2.86903e-06
2.88073e-06
2.89762e-06
2.91843e-06
2.94245e-06
2.96918e-06
2.99832e-06
3.02963e-06
3.06248e-06
3.09595e-06
3.12887e-06
3.1598e-06
3.18708e-06
3.20944e-06
3.22564e-06
3.23459e-06
3.23546e-06
3.23022e-06
3.2248e-06
3.21928e-06
3.21362e-06
3.20782e-06
3.20185e-06
3.19569e-06
3.18935e-06
3.18281e-06
3.1761e-06
3.16922e-06
3.1622e-06
3.15506e-06
3.14783e-06
3.14056e-06
3.13326e-06
3.12597e-06
3.11872e-06
3.11154e-06
3.10444e-06
3.09744e-06
3.09054e-06
3.08374e-06
3.07704e-06
3.07042e-06
3.06388e-06
3.05737e-06
3.05089e-06
3.0444e-06
3.03786e-06
3.03126e-06
3.02456e-06
3.01773e-06
3.01074e-06
3.00358e-06
2.99621e-06
2.98863e-06
2.98084e-06
2.97281e-06
2.96457e-06
2.95611e-06
2.94746e-06
2.93865e-06
2.92969e-06
2.92065e-06
2.91155e-06
2.90247e-06
2.89345e-06
2.88457e-06
2.8759e-06
2.86752e-06
2.85951e-06
2.85194e-06
2.84482e-06
2.83526e-06
2.82243e-06
2.80705e-06
2.79007e-06
2.77252e-06
2.75553e-06
2.74032e-06
2.72794e-06
2.71918e-06
2.71465e-06
2.71483e-06
2.7203e-06
2.73191e-06
2.75081e-06
2.77846e-06
2.81573e-06
2.86182e-06
2.91368e-06
2.96373e-06
2.99622e-06
2.99767e-06
2.97805e-06
2.9574e-06
3.69147e-06
3.64154e-06
3.57076e-06
3.47885e-06
3.38205e-06
3.29349e-06
3.21786e-06
3.15595e-06
3.10693e-06
3.06905e-06
3.04044e-06
3.01963e-06
3.00546e-06
2.99702e-06
2.99343e-06
2.99373e-06
2.99681e-06
3.00142e-06
3.0062e-06
3.00997e-06
3.01165e-06
3.01031e-06
3.00522e-06
2.99808e-06
2.99118e-06
2.98439e-06
2.9777e-06
2.97109e-06
2.96454e-06
2.95804e-06
2.95158e-06
2.94515e-06
2.93876e-06
2.9324e-06
2.92608e-06
2.91979e-06
2.91354e-06
2.90733e-06
2.90114e-06
2.89497e-06
2.8888e-06
2.88263e-06
2.87642e-06
2.87015e-06
2.8638e-06
2.85733e-06
2.85072e-06
2.84394e-06
2.83697e-06
2.82977e-06
2.82233e-06
2.81463e-06
2.80666e-06
2.79841e-06
2.78988e-06
2.78107e-06
2.77199e-06
2.76266e-06
2.75308e-06
2.74329e-06
2.73329e-06
2.72312e-06
2.7128e-06
2.70237e-06
2.69184e-06
2.68126e-06
2.67065e-06
2.66004e-06
2.64947e-06
2.63895e-06
2.62853e-06
2.61822e-06
2.60806e-06
2.59806e-06
2.58825e-06
2.57862e-06
2.56931e-06
2.56188e-06
2.55728e-06
2.55615e-06
2.55947e-06
2.56841e-06
2.5843e-06
2.60805e-06
2.64024e-06
2.68128e-06
2.73129e-06
2.79049e-06
2.86013e-06
2.94181e-06
3.0377e-06
3.15037e-06
3.28004e-06
3.42301e-06
3.57108e-06
3.70712e-06
3.79684e-06
3.81171e-06
3.77722e-06
3.73314e-06
5.67202e-06
5.57226e-06
5.41484e-06
5.19246e-06
4.94214e-06
4.69803e-06
4.47447e-06
4.27633e-06
4.10456e-06
3.95683e-06
3.82942e-06
3.71919e-06
3.6236e-06
3.54063e-06
3.46915e-06
3.40824e-06
3.35692e-06
3.31425e-06
3.2792e-06
3.25055e-06
3.22725e-06
3.20852e-06
3.19381e-06
3.18531e-06
3.17793e-06
3.17115e-06
3.16495e-06
3.15931e-06
3.15418e-06
3.14954e-06
3.14536e-06
3.14163e-06
3.13829e-06
3.13532e-06
3.13267e-06
3.13028e-06
3.12809e-06
3.12603e-06
3.12402e-06
3.12197e-06
3.11977e-06
3.11734e-06
3.11456e-06
3.11134e-06
3.10758e-06
3.1032e-06
3.0981e-06
3.09222e-06
3.08552e-06
3.07795e-06
3.0695e-06
3.06016e-06
3.04996e-06
3.03893e-06
3.02712e-06
3.0146e-06
3.00144e-06
2.98773e-06
2.97357e-06
2.95904e-06
2.94425e-06
2.92929e-06
2.91425e-06
2.89922e-06
2.88427e-06
2.86946e-06
2.85484e-06
2.84046e-06
2.82632e-06
2.81243e-06
2.79877e-06
2.7853e-06
2.77195e-06
2.75865e-06
2.74529e-06
2.73175e-06
2.71841e-06
2.71657e-06
2.73104e-06
2.76209e-06
2.81032e-06
2.87665e-06
2.96215e-06
3.06643e-06
3.18854e-06
3.32753e-06
3.48213e-06
3.65166e-06
3.83813e-06
4.0441e-06
4.27301e-06
4.52873e-06
4.81003e-06
5.10822e-06
5.40723e-06
5.67574e-06
5.85239e-06
5.88679e-06
5.83006e-06
5.74857e-06
9.75502e-06
9.5792e-06
9.28502e-06
8.85265e-06
8.35162e-06
7.85033e-06
7.37943e-06
6.95122e-06
6.57025e-06
6.23382e-06
5.9354e-06
5.66939e-06
5.43107e-06
5.21678e-06
5.02518e-06
4.85573e-06
4.70796e-06
4.58172e-06
4.4768e-06
4.39203e-06
4.32659e-06
4.28004e-06
4.25231e-06
4.24754e-06
4.24543e-06
4.24482e-06
4.24564e-06
4.24779e-06
4.25118e-06
4.25574e-06
4.26139e-06
4.26802e-06
4.27554e-06
4.28382e-06
4.2927e-06
4.30202e-06
4.31161e-06
4.32124e-06
4.3307e-06
4.33975e-06
4.34816e-06
4.35567e-06
4.36204e-06
4.36705e-06
4.37049e-06
4.37217e-06
4.37194e-06
4.36968e-06
4.3653e-06
4.35877e-06
4.3501e-06
4.33934e-06
4.32657e-06
4.31194e-06
4.29561e-06
4.27777e-06
4.25865e-06
4.2385e-06
4.21756e-06
4.1961e-06
4.17439e-06
4.15266e-06
4.13115e-06
4.11008e-06
4.08964e-06
4.06998e-06
4.05121e-06
4.0334e-06
4.01657e-06
4.00068e-06
3.98564e-06
3.97127e-06
3.95733e-06
3.94351e-06
3.92942e-06
3.91463e-06
3.89989e-06
3.9143e-06
3.96977e-06
4.06563e-06
4.20132e-06
4.37656e-06
4.59111e-06
4.84125e-06
5.12245e-06
5.43055e-06
5.76125e-06
6.11185e-06
6.48507e-06
6.88451e-06
7.31506e-06
7.78214e-06
8.28203e-06
8.79896e-06
9.30649e-06
9.75515e-06
1.00483e-05
1.0107e-05
1.00192e-05
9.88275e-06
1.71659e-05
1.68853e-05
1.63944e-05
1.56532e-05
1.47779e-05
1.38877e-05
1.30386e-05
1.22549e-05
1.15478e-05
1.09147e-05
1.03454e-05
9.83078e-06
9.36314e-06
8.93651e-06
8.54965e-06
8.20308e-06
7.89756e-06
7.63477e-06
7.41626e-06
7.24135e-06
7.10985e-06
7.02224e-06
6.97937e-06
6.98904e-06
7.00363e-06
7.02101e-06
7.04091e-06
7.06308e-06
7.08732e-06
7.11343e-06
7.1412e-06
7.17041e-06
7.20081e-06
7.23212e-06
7.26404e-06
7.29622e-06
7.3283e-06
7.35988e-06
7.39055e-06
7.41988e-06
7.44744e-06
7.47281e-06
7.49559e-06
7.51541e-06
7.53192e-06
7.54486e-06
7.55401e-06
7.55923e-06
7.56043e-06
7.55764e-06
7.55095e-06
7.54052e-06
7.52661e-06
7.50955e-06
7.48971e-06
7.46756e-06
7.44359e-06
7.41832e-06
7.39232e-06
7.36615e-06
7.34037e-06
7.31554e-06
7.29216e-06
7.27071e-06
7.25162e-06
7.23523e-06
7.2218e-06
7.2115e-06
7.20437e-06
7.20033e-06
7.19913e-06
7.20035e-06
7.20337e-06
7.20734e-06
7.21119e-06
7.21361e-06
7.21561e-06
7.27527e-06
7.41622e-06
7.63574e-06
7.93035e-06
8.29621e-06
8.72904e-06
9.21788e-06
9.75091e-06
1.03178e-05
1.09088e-05
1.1518e-05
1.21489e-05
1.28065e-05
1.34975e-05
1.42296e-05
1.49962e-05
1.57737e-05
1.65251e-05
1.7182e-05
1.76095e-05
1.76948e-05
1.75689e-05
1.73606e-05
2.94057e-05
2.8998e-05
2.82517e-05
2.70975e-05
2.57122e-05
2.42844e-05
2.29058e-05
2.1619e-05
2.04457e-05
1.93851e-05
1.84223e-05
1.75443e-05
1.67395e-05
1.5999e-05
1.53223e-05
1.47118e-05
1.41708e-05
1.37041e-05
1.33163e-05
1.3008e-05
1.27803e-05
1.2635e-05
1.25762e-05
1.26099e-05
1.26507e-05
1.26953e-05
1.27431e-05
1.27937e-05
1.28467e-05
1.29019e-05
1.2959e-05
1.30177e-05
1.30776e-05
1.31384e-05
1.31998e-05
1.32612e-05
1.33222e-05
1.33824e-05
1.34411e-05
1.34979e-05
1.35521e-05
1.36033e-05
1.36509e-05
1.36944e-05
1.37333e-05
1.37674e-05
1.37963e-05
1.382e-05
1.38383e-05
1.38513e-05
1.38594e-05
1.38627e-05
1.38619e-05