/*--------------------------------*- C++ -*----------------------------------*\
| =========                 |                                                 |
| \\      /  F ield         | OpenFOAM: The Open Source CFD Toolbox           |
|  \\    /   O peration     | Version:  v1912                                 |
|   \\  /    A nd           | Website:  www.openfoam.com                      |
|    \\/     M anipulation  |                                                 |
\*---------------------------------------------------------------------------*/
FoamFile
{
    version     2.0;
    format      ascii;
    class       volScalarField;
    location    "10000";
    object      nut;
}
// * * * * * * * * * * * * * * * * * * * * * * * * * * * * * * * * * * * * * //

dimensions      [0 2 -1 0 0 0 0];


internalField   nonuniform List<scalar> 
3000
(
7.13992e-06
4.94562e-06
2.95421e-06
1.83684e-07
1.00749e-06
8.65983e-07
4.32877e-07
2.29429e-07
1.40996e-07
1.04403e-07
8.17088e-08
7.80472e-08
9.42775e-08
1.01196e-07
9.53368e-08
7.51862e-08
4.30301e-08
1.26484e-08
1.05808e-09
1.16853e-08
3.1859e-08
3.92387e-08
3.49892e-08
3.05417e-08
3.12045e-08
3.56809e-08
4.0852e-08
4.52414e-08
4.81122e-08
4.90311e-08
4.66572e-08
4.01387e-08
3.0996e-08
2.25826e-08
1.76462e-08
1.76482e-08
3.10702e-08
8.90265e-08
1.68617e-07
2.56559e-07
3.35664e-07
3.90051e-07
4.09855e-07
3.93278e-07
3.44675e-07
2.72724e-07
1.94453e-07
1.25513e-07
7.3888e-08
4.02257e-08
2.0591e-08
1.06473e-08
5.85269e-09
3.84251e-09
3.22153e-09
3.0147e-09
2.88156e-09
3.71832e-09
8.58769e-09
3.02632e-08
8.86219e-08
2.12755e-07
4.40693e-07
8.16292e-07
1.38376e-06
2.18025e-06
3.22818e-06
4.52907e-06
6.05984e-06
7.77036e-06
9.58114e-06
1.13808e-05
1.30181e-05
1.42635e-05
1.47367e-05
1.39546e-05
1.18102e-05
9.61232e-06
8.26448e-06
7.52162e-06
7.00387e-06
6.53941e-06
6.02658e-06
5.41493e-06
4.62157e-06
3.66908e-06
2.65332e-06
1.67765e-06
8.53856e-07
2.86345e-07
9.98514e-09
1.53041e-07
7.54613e-07
2.16721e-06
5.05793e-06
1.03936e-05
1.81872e-05
2.36126e-05
2.07728e-05
1.29952e-05
1.09734e-05
8.22645e-06
4.93107e-06
1.66088e-06
1.01536e-06
6.67054e-07
3.57338e-07
1.96395e-07
1.21211e-07
8.8705e-08
7.03002e-08
6.67574e-08
7.71378e-08
8.0935e-08
7.47699e-08
5.8463e-08
3.47972e-08
1.35919e-08
6.02009e-09
1.47605e-08
2.99693e-08
3.45304e-08
3.13143e-08
2.79757e-08
2.84673e-08
3.19153e-08
3.59043e-08
3.91484e-08
4.10192e-08
4.12205e-08
3.90488e-08
3.43294e-08
2.93305e-08
2.90011e-08
3.79449e-08
5.99944e-08
1.00201e-07
1.60852e-07
2.24963e-07
2.8103e-07
3.18997e-07
3.3268e-07
3.21018e-07
2.8796e-07
2.41044e-07
1.88365e-07
1.38734e-07
9.86423e-08
7.02758e-08
5.27118e-08
4.36569e-08
4.0859e-08
4.11244e-08
4.29153e-08
5.38502e-08
7.0577e-08
9.71418e-08
1.4545e-07
2.32443e-07
3.82419e-07
6.2289e-07
9.82045e-07
1.48515e-06
2.1504e-06
2.98469e-06
3.97935e-06
5.10736e-06
6.32177e-06
7.55598e-06
8.72514e-06
9.72772e-06
1.04473e-05
1.07544e-05
1.05154e-05
9.64963e-06
8.29238e-06
7.09732e-06
6.17538e-06
5.59378e-06
5.19573e-06
4.85452e-06
4.507e-06
4.11329e-06
3.64148e-06
3.07281e-06
2.43341e-06
1.7759e-06
1.15926e-06
6.46163e-07
2.883e-07
1.04232e-07
2.56003e-07
7.38485e-07
1.75308e-06
3.59431e-06
6.53062e-06
1.03708e-05
1.54452e-05
1.70665e-05
1.41483e-05
1.207e-05
1.06177e-05
7.53187e-06
3.72525e-06
2.17679e-06
1.18064e-06
3.65038e-07
1.92759e-07
1.13387e-07
8.27348e-08
6.94382e-08
6.62961e-08
7.25732e-08
7.61551e-08
7.63385e-08
7.47772e-08
7.3422e-08
7.57355e-08
8.26252e-08
8.90962e-08
8.60497e-08
6.71114e-08
4.66621e-08
4.04654e-08
4.35965e-08
4.85432e-08
5.43103e-08
6.03013e-08
6.53191e-08
7.03595e-08
7.71282e-08
8.72952e-08
1.02925e-07
1.25504e-07
1.55099e-07
1.90675e-07
2.30075e-07
2.69193e-07
3.02084e-07
3.25789e-07
3.39708e-07
3.45701e-07
3.48361e-07
3.52386e-07
3.59315e-07
3.65543e-07
3.72055e-07
3.78557e-07
3.85334e-07
3.94412e-07
4.10748e-07
4.43818e-07
5.05229e-07
5.89278e-07
6.86785e-07
8.23846e-07
1.0026e-06
1.23373e-06
1.52745e-06
1.89425e-06
2.34264e-06
2.87692e-06
3.49468e-06
4.18479e-06
4.92572e-06
5.68419e-06
6.4149e-06
7.06107e-06
7.55721e-06
7.83276e-06
7.81885e-06
7.46339e-06
6.75726e-06
5.78136e-06
4.78246e-06
4.14669e-06
3.79004e-06
3.57798e-06
3.41534e-06
3.26171e-06
3.10747e-06
2.94427e-06
2.76445e-06
2.56214e-06
2.34055e-06
2.11016e-06
1.88447e-06
1.67319e-06
1.48443e-06
1.2915e-06
1.16687e-06
1.22413e-06
1.47481e-06
1.94081e-06
2.63088e-06
3.52105e-06
4.68419e-06
8.16793e-06
1.27233e-05
1.29718e-05
1.0035e-05
1.0015e-05
8.53737e-06
5.28752e-06
3.30686e-06
2.4119e-06
1.45193e-06
5.71645e-07
2.59233e-07
1.59135e-07
1.36494e-07
1.25948e-07
1.4247e-07
1.73756e-07
2.10176e-07
2.47084e-07
2.77835e-07
2.96202e-07
2.97333e-07
2.78554e-07
2.40797e-07
1.90627e-07
1.42561e-07
1.2921e-07
1.426e-07
1.53395e-07
1.63309e-07
1.74189e-07
1.87227e-07
2.03641e-07
2.2464e-07
2.51313e-07
2.8448e-07
3.24163e-07
3.69671e-07
4.20066e-07
4.742e-07
5.30881e-07
5.89235e-07
6.488e-07
7.08774e-07
7.67755e-07
8.2356e-07
8.73617e-07
9.16054e-07
9.54849e-07
9.91388e-07
1.028e-06
1.06807e-06
1.1163e-06
1.1786e-06
1.25909e-06
1.35388e-06
1.47081e-06
1.62819e-06
1.83169e-06
2.08357e-06
2.38575e-06
2.73747e-06
3.13451e-06
3.56811e-06
4.02385e-06
4.48074e-06
4.91091e-06
5.28016e-06
5.54969e-06
5.67986e-06
5.637e-06
5.40367e-06
4.9901e-06
4.44466e-06
3.85475e-06
3.32715e-06
2.95509e-06
2.77668e-06
2.71436e-06
2.68106e-06
2.66963e-06
2.66865e-06
2.67288e-06
2.6809e-06
2.69128e-06
2.70265e-06
2.71413e-06
2.72447e-06
2.73296e-06
2.73927e-06
2.73697e-06
2.71384e-06
2.67229e-06
2.65586e-06
2.67601e-06
2.73723e-06
2.82657e-06
2.92476e-06
3.01426e-06
3.11063e-06
3.58986e-06
7.45495e-06
9.64735e-06
6.37817e-06
7.27734e-06
7.84573e-06
6.03851e-06
4.19745e-06
3.15394e-06
2.7066e-06
1.73663e-06
1.01556e-06
5.17455e-07
4.13457e-07
3.4596e-07
3.7039e-07
4.2495e-07
4.71117e-07
5.06548e-07
5.24193e-07
5.20921e-07
4.96475e-07
4.53207e-07
3.9699e-07
3.40166e-07
3.00669e-07
2.98235e-07
3.16459e-07
3.34388e-07
3.53485e-07
3.75868e-07
4.03292e-07
4.37249e-07
4.79039e-07
5.29714e-07
5.89874e-07
6.59393e-07
7.37451e-07
8.22653e-07
9.12926e-07
1.00567e-06
1.09804e-06
1.1871e-06
1.27035e-06
1.34636e-06
1.41382e-06
1.47241e-06
1.52408e-06
1.57449e-06
1.62543e-06
1.67921e-06
1.73854e-06
1.8065e-06
1.88566e-06
1.97742e-06
2.0844e-06
2.2237e-06
2.39844e-06
2.60883e-06
2.85077e-06
3.11631e-06
3.3933e-06
3.66554e-06
3.91361e-06
4.11625e-06
4.25249e-06
4.30457e-06
4.26156e-06
4.12307e-06
3.9022e-06
3.62618e-06
3.33282e-06
3.06242e-06
2.84752e-06
2.70409e-06
2.62832e-06
2.60126e-06
2.59817e-06
2.59978e-06
2.60624e-06
2.62165e-06
2.64659e-06
2.67781e-06
2.71293e-06
2.75054e-06
2.78958e-06
2.82853e-06
2.86526e-06
2.90021e-06
2.92981e-06
2.9442e-06
2.94966e-06
2.9623e-06
2.98122e-06
3.00114e-06
3.01972e-06
3.03411e-06
3.04064e-06
3.03671e-06
3.02475e-06
3.02772e-06
4.06059e-06
5.67172e-06
3.89244e-06
4.54319e-06
6.02336e-06
5.97932e-06
4.73474e-06
3.74565e-06
3.18157e-06
2.96296e-06
2.23864e-06
1.30489e-06
1.0028e-06
6.79088e-07
6.50313e-07
6.94676e-07
7.29753e-07
7.5558e-07
7.6811e-07
7.59706e-07
7.29917e-07
6.81652e-07
6.22814e-07
5.68926e-07
5.37345e-07
5.42294e-07
5.71895e-07
6.03375e-07
6.37727e-07
6.77658e-07
7.25497e-07
7.83055e-07
8.51543e-07
9.3142e-07
1.02213e-06
1.1219e-06
1.22786e-06
1.33639e-06
1.44364e-06
1.54609e-06
1.64175e-06
1.72899e-06
1.80735e-06
1.87645e-06
1.93784e-06
1.99271e-06
2.04199e-06
2.09221e-06
2.14484e-06
2.20158e-06
2.26387e-06
2.33293e-06
2.40934e-06
2.49151e-06
2.59199e-06
2.71181e-06
2.84908e-06
2.99814e-06
3.14947e-06
3.29067e-06
3.40806e-06
3.48877e-06
3.52303e-06
3.50606e-06
3.43925e-06
3.33036e-06
3.19266e-06
3.04304e-06
2.89915e-06
2.77616e-06
2.68371e-06
2.62438e-06
2.59405e-06
2.58412e-06
2.58474e-06
2.58819e-06
2.59174e-06
2.5957e-06
2.60326e-06
2.6185e-06
2.64211e-06
2.67201e-06
2.70608e-06
2.74243e-06
2.78041e-06
2.81854e-06
2.85296e-06
2.8861e-06
2.90793e-06
2.92281e-06
2.94102e-06
2.9622e-06
2.98297e-06
3.00018e-06
3.01195e-06
3.01698e-06
3.01387e-06
3.00223e-06
2.98494e-06
2.96853e-06
3.11839e-06
3.59021e-06
3.07487e-06
3.28017e-06
4.26187e-06
5.26758e-06
4.87535e-06
4.14253e-06
3.58503e-06
3.26006e-06
3.1088e-06
2.84604e-06
1.90592e-06
1.35886e-06
9.86564e-07
1.00745e-06
1.04726e-06
1.08168e-06
1.10863e-06
1.11439e-06
1.09628e-06
1.05468e-06
9.96029e-07
9.39646e-07
9.07921e-07
9.18567e-07
9.66268e-07
1.01739e-06
1.0727e-06
1.13532e-06
1.20758e-06
1.29059e-06
1.38402e-06
1.48595e-06
1.59304e-06
1.70094e-06
1.80519e-06
1.90201e-06
1.98895e-06
2.06498e-06
2.13091e-06
2.18761e-06
2.23669e-06
2.27961e-06
2.31866e-06
2.35528e-06
2.39065e-06
2.42788e-06
2.46829e-06
2.51257e-06
2.56087e-06
2.6129e-06
2.66775e-06
2.72653e-06
2.79189e-06
2.86184e-06
2.93223e-06
2.99676e-06
3.04794e-06
3.07851e-06
3.08328e-06
3.06044e-06
3.01221e-06
2.94441e-06
2.86537e-06
2.78435e-06
2.70996e-06
2.64876e-06
2.60443e-06
2.57741e-06
2.56528e-06
2.56392e-06
2.56841e-06
2.57442e-06
2.57861e-06
2.58184e-06
2.58427e-06
2.58741e-06
2.59417e-06
2.60803e-06
2.62928e-06
2.65711e-06
2.6896e-06
2.72349e-06
2.75924e-06
2.7959e-06
2.82664e-06
2.85455e-06
2.87362e-06
2.89616e-06
2.91822e-06
2.93919e-06
2.95769e-06
2.97173e-06
2.97993e-06
2.98144e-06
2.9756e-06
2.96288e-06
2.94624e-06
2.93e-06
2.93578e-06
3.01466e-06
2.88908e-06
2.92507e-06
3.29899e-06
4.28793e-06
4.62632e-06
4.29953e-06
3.87082e-06
3.53657e-06
3.32508e-06
3.18131e-06
3.12117e-06
2.4093e-06
1.85261e-06
1.53564e-06
1.46955e-06
1.51899e-06
1.55211e-06
1.58321e-06
1.59071e-06
1.56973e-06
1.52292e-06
1.47368e-06
1.45124e-06
1.46915e-06
1.53127e-06
1.59469e-06
1.65991e-06
1.7293e-06
1.80394e-06
1.88337e-06
1.96563e-06
2.04764e-06
2.126e-06
2.19772e-06
2.26086e-06
2.31461e-06
2.35928e-06
2.39593e-06
2.4261e-06
2.45117e-06
2.47274e-06
2.49226e-06
2.51086e-06
2.52906e-06
2.54767e-06
2.56831e-06
2.59154e-06
2.61748e-06
2.64586e-06
2.67602e-06
2.70666e-06
2.738e-06
2.76918e-06
2.79775e-06
2.82038e-06
2.83333e-06
2.83331e-06
2.81856e-06
2.7896e-06
2.74933e-06
2.70249e-06
2.65459e-06
2.61086e-06
2.57528e-06
2.55005e-06
2.53548e-06
2.53021e-06
2.53159e-06
2.53665e-06
2.54275e-06
2.54787e-06
2.55044e-06
2.55078e-06
2.55315e-06
2.55667e-06
2.56233e-06
2.57155e-06
2.58741e-06
2.60942e-06
2.63824e-06
2.67289e-06
2.70659e-06
2.7411e-06
2.77592e-06
2.80411e-06
2.82862e-06
2.85368e-06
2.87737e-06
2.89888e-06
2.91794e-06
2.93363e-06
2.94454e-06
2.94972e-06
2.94873e-06
2.94149e-06
2.92895e-06
2.91384e-06
2.89931e-06
2.88848e-06
2.88952e-06
2.84411e-06
2.8419e-06
2.94177e-06
3.4917e-06
4.09697e-06
4.18988e-06
3.98775e-06
3.73388e-06
3.52233e-06
3.36339e-06
3.24589e-06
3.1337e-06
3.0643e-06
2.81482e-06
2.27205e-06
2.14226e-06
2.0753e-06
2.0689e-06
2.08318e-06
2.08025e-06
2.04505e-06
1.99208e-06
1.97297e-06
1.99279e-06
2.04303e-06
2.09133e-06
2.13813e-06
2.18464e-06
2.23137e-06
2.2781e-06
2.3237e-06
2.36644e-06
2.40474e-06
2.43759e-06
2.46469e-06
2.48635e-06
2.50337e-06
2.51656e-06
2.52684e-06
2.53502e-06
2.54252e-06
2.54977e-06
2.55702e-06
2.56408e-06
2.57167e-06
2.58037e-06
2.59111e-06
2.60417e-06
2.61994e-06
2.63585e-06
2.65214e-06
2.66749e-06
2.68177e-06
2.69176e-06
2.69531e-06
2.69041e-06
2.67594e-06
2.65242e-06
2.62222e-06
2.58848e-06
2.55501e-06
2.52528e-06
2.50185e-06
2.48596e-06
2.47745e-06
2.47483e-06
2.47561e-06
2.47665e-06
2.47599e-06
2.47269e-06
2.46909e-06
2.46433e-06
2.46754e-06
2.4769e-06
2.49176e-06
2.51066e-06
2.53152e-06
2.55685e-06
2.58597e-06
2.62063e-06
2.66112e-06
2.69789e-06
2.73158e-06
2.76169e-06
2.79091e-06
2.81781e-06
2.84241e-06
2.86454e-06
2.88392e-06
2.90024e-06
2.91278e-06
2.92057e-06
2.92304e-06
2.92008e-06
2.91206e-06
2.90015e-06
2.88675e-06
2.87423e-06
2.86322e-06
2.85385e-06
2.82424e-06
2.81657e-06
2.83398e-06
3.05052e-06
3.51904e-06
3.84863e-06
3.89911e-06
3.79458e-06
3.64801e-06
3.50851e-06
3.38489e-06
3.27931e-06
3.19341e-06
3.12047e-06
3.05333e-06
3.01069e-06
2.80608e-06
2.58279e-06
2.5433e-06
2.53228e-06
2.47987e-06
2.35825e-06
2.313e-06
2.31215e-06
2.33853e-06
2.36487e-06
2.39178e-06
2.41649e-06
2.44044e-06
2.4653e-06
2.49033e-06
2.51359e-06
2.53415e-06
2.55161e-06
2.56603e-06
2.57791e-06
2.5876e-06
2.59531e-06
2.60028e-06
2.6033e-06
2.60394e-06
2.60361e-06
2.60235e-06
2.60071e-06
2.59702e-06
2.59173e-06
2.58628e-06
2.58228e-06
2.58158e-06
2.5858e-06
2.59573e-06
2.60944e-06
2.62063e-06
2.62764e-06
2.62944e-06
2.6247e-06
2.61243e-06
2.59285e-06
2.56511e-06
2.53363e-06
2.50406e-06
2.4767e-06
2.45321e-06
2.43464e-06
2.4212e-06
2.41222e-06
2.40608e-06
2.40043e-06
2.39316e-06
2.38268e-06
2.37176e-06
2.36912e-06
2.38049e-06
2.4036e-06
2.43547e-06
2.47175e-06
2.50803e-06
2.54714e-06
2.58768e-06
2.6276e-06
2.66515e-06
2.70115e-06
2.73445e-06
2.76499e-06
2.79263e-06
2.81729e-06
2.83908e-06
2.85804e-06
2.87402e-06
2.8867e-06
2.89558e-06
2.90001e-06
2.89974e-06
2.89492e-06
2.88616e-06
2.87471e-06
2.86272e-06
2.85209e-06
2.84278e-06
2.8337e-06
2.80697e-06
2.8e-06
2.799e-06
2.86435e-06
3.10158e-06
3.41495e-06
3.62182e-06
3.68094e-06
3.64568e-06
3.56957e-06
3.47935e-06
3.38916e-06
3.30506e-06
3.23055e-06
3.16634e-06
3.11296e-06
3.05509e-06
3.01014e-06
2.97937e-06
2.9377e-06
2.82913e-06
2.60984e-06
2.60066e-06
2.61182e-06
2.61406e-06
2.62098e-06
2.63539e-06
2.64953e-06
2.66237e-06
2.67516e-06
2.69203e-06
2.7031e-06
2.71443e-06
2.72762e-06
2.74392e-06
2.76393e-06
2.78729e-06
2.81228e-06
2.83566e-06
2.85319e-06
2.86051e-06
2.85555e-06
2.83975e-06
2.81682e-06
2.79292e-06
2.77094e-06
2.75081e-06
2.73117e-06
2.71022e-06
2.68645e-06
2.65919e-06
2.62788e-06
2.59552e-06
2.57164e-06
2.55761e-06
2.5514e-06
2.54949e-06
2.54848e-06
2.54522e-06
2.53871e-06
2.5293e-06
2.51764e-06
2.50468e-06
2.49133e-06
2.47838e-06
2.46634e-06
2.45547e-06
2.44587e-06
2.43762e-06
2.43354e-06
2.43426e-06
2.4413e-06
2.45525e-06
2.47551e-06
2.50065e-06
2.52853e-06
2.55756e-06
2.59138e-06
2.62792e-06
2.66405e-06
2.69827e-06
2.72989e-06
2.7586e-06
2.7843e-06
2.80699e-06
2.82674e-06
2.84363e-06
2.85769e-06
2.86882e-06
2.87677e-06
2.88119e-06
2.88171e-06
2.87827e-06
2.87121e-06
2.86126e-06
2.84966e-06
2.83847e-06
2.82937e-06
2.82197e-06
2.81468e-06
2.78465e-06
2.7795e-06
2.77668e-06
2.79253e-06
2.88166e-06
3.06206e-06
3.2658e-06
3.41521e-06
3.4872e-06
3.49884e-06
3.47267e-06
3.42573e-06
3.36879e-06
3.30901e-06
3.2512e-06
3.19734e-06
3.14583e-06
3.09953e-06
3.06016e-06
3.02598e-06
2.99694e-06
2.98104e-06
2.97045e-06
2.95938e-06
2.9463e-06
2.93026e-06
2.90951e-06
2.88616e-06
2.86353e-06
2.84283e-06
2.8246e-06
2.80965e-06
2.79888e-06
2.79293e-06
2.79203e-06
2.79588e-06
2.80371e-06
2.81432e-06
2.82619e-06
2.83732e-06
2.84546e-06
2.8495e-06
2.8502e-06
2.84897e-06
2.84702e-06
2.84522e-06
2.84403e-06
2.8436e-06
2.84378e-06
2.84427e-06
2.84462e-06
2.84444e-06
2.84279e-06
2.8375e-06
2.82862e-06
2.81664e-06
2.80239e-06
2.78675e-06
2.77048e-06
2.75411e-06
2.73803e-06
2.72251e-06
2.70778e-06
2.694e-06
2.68134e-06
2.66995e-06
2.65992e-06
2.65139e-06
2.64594e-06
2.64333e-06
2.64318e-06
2.64569e-06
2.65068e-06
2.65773e-06
2.66629e-06
2.67573e-06
2.68589e-06
2.70067e-06
2.71952e-06
2.74015e-06
2.76102e-06
2.78113e-06
2.79982e-06
2.81656e-06
2.83107e-06
2.84321e-06
2.85294e-06
2.86023e-06
2.86498e-06
2.86698e-06
2.86601e-06
2.86186e-06
2.8546e-06
2.84466e-06
2.83283e-06
2.82035e-06
2.80925e-06
2.80125e-06
2.79567e-06
2.79039e-06
2.75032e-06
2.74723e-06
2.7464e-06
2.75154e-06
2.78024e-06
2.85507e-06
2.97387e-06
3.10585e-06
3.21709e-06
3.29226e-06
3.33203e-06
3.34317e-06
3.33344e-06
3.30969e-06
3.2776e-06
3.2413e-06
3.20327e-06
3.16596e-06
3.13122e-06
3.09964e-06
3.07152e-06
3.04774e-06
3.02828e-06
3.01257e-06
2.99867e-06
2.98607e-06
2.97438e-06
2.96323e-06
2.95236e-06
2.94164e-06
2.93104e-06
2.9206e-06
2.91044e-06
2.90073e-06
2.89169e-06
2.88353e-06
2.87635e-06
2.87017e-06
2.86489e-06
2.8603e-06
2.85642e-06
2.85346e-06
2.85171e-06
2.85132e-06
2.85233e-06
2.8547e-06
2.85831e-06
2.86297e-06
2.8685e-06
2.87467e-06
2.88126e-06
2.88804e-06
2.89483e-06
2.90122e-06
2.90677e-06
2.91119e-06
2.91425e-06
2.91585e-06
2.91597e-06
2.91471e-06
2.91222e-06
2.90869e-06
2.90435e-06
2.89943e-06
2.89412e-06
2.88863e-06
2.88314e-06
2.87796e-06
2.87253e-06
2.8669e-06
2.86121e-06
2.85552e-06
2.84986e-06
2.84429e-06
2.83887e-06
2.83369e-06
2.82906e-06
2.82685e-06
2.82763e-06
2.83083e-06
2.83567e-06
2.84128e-06
2.84685e-06
2.85168e-06
2.85532e-06
2.85751e-06
2.8581e-06
2.85703e-06
2.85414e-06
2.84927e-06
2.84222e-06
2.83286e-06
2.82133e-06
2.80811e-06
2.79397e-06
2.78013e-06
2.76873e-06
2.76147e-06
2.75748e-06
2.75413e-06
2.69619e-06
2.69512e-06
2.69701e-06
2.70295e-06
2.71586e-06
2.74414e-06
2.79517e-06
2.86705e-06
2.94832e-06
3.02612e-06
3.09198e-06
3.14179e-06
3.17495e-06
3.19287e-06
3.19788e-06
3.19283e-06
3.18053e-06
3.1636e-06
3.14434e-06
3.12443e-06
3.10512e-06
3.08738e-06
3.07186e-06
3.05832e-06
3.04555e-06
3.03346e-06
3.02198e-06
3.01105e-06
3.00059e-06
2.99054e-06
2.98084e-06
2.97142e-06
2.96225e-06
2.95332e-06
2.94467e-06
2.93636e-06
2.9285e-06
2.92121e-06
2.9146e-06
2.90877e-06
2.90377e-06
2.89964e-06
2.89647e-06
2.89426e-06
2.89303e-06
2.89273e-06
2.89329e-06
2.89463e-06
2.89665e-06
2.89925e-06
2.90231e-06
2.90574e-06
2.90945e-06
2.91335e-06
2.9173e-06
2.9212e-06
2.92492e-06
2.92838e-06
2.9315e-06
2.93421e-06
2.93646e-06
2.93823e-06
2.9395e-06
2.94026e-06
2.94053e-06
2.94029e-06
2.93955e-06
2.93818e-06
2.9362e-06
2.93362e-06
2.93044e-06
2.9267e-06
2.92245e-06
2.91777e-06
2.91276e-06
2.90754e-06
2.90234e-06
2.897e-06
2.89161e-06
2.88626e-06
2.88091e-06
2.87541e-06
2.86953e-06
2.86311e-06
2.85605e-06
2.8483e-06
2.83984e-06
2.83063e-06
2.8205e-06
2.80928e-06
2.79678e-06
2.78288e-06
2.76771e-06
2.75176e-06
2.73574e-06
2.72084e-06
2.70923e-06
2.70263e-06
2.6999e-06
2.69827e-06
2.61512e-06
2.61583e-06
2.62014e-06
2.629e-06
2.6413e-06
2.65761e-06
2.68075e-06
2.71301e-06
2.75379e-06
2.80032e-06
2.84917e-06
2.89688e-06
2.94055e-06
2.97813e-06
3.00808e-06
3.0298e-06
3.04363e-06
3.05048e-06
3.05165e-06
3.04863e-06
3.04271e-06
3.0349e-06
3.02593e-06
3.01652e-06
3.00748e-06
2.99883e-06
2.99056e-06
2.98261e-06
2.97495e-06
2.96753e-06
2.96029e-06
2.95322e-06
2.94627e-06
2.93945e-06
2.93275e-06
2.92621e-06
2.91988e-06
2.91379e-06
2.90799e-06
2.90256e-06
2.89757e-06
2.89306e-06
2.88909e-06
2.88568e-06
2.88284e-06
2.88057e-06
2.87885e-06
2.87767e-06
2.87698e-06
2.87674e-06
2.87691e-06
2.87745e-06
2.87829e-06
2.87942e-06
2.88078e-06
2.88234e-06
2.88404e-06
2.8858e-06
2.88756e-06
2.88925e-06
2.89083e-06
2.89223e-06
2.89339e-06
2.89426e-06
2.89478e-06
2.89493e-06
2.8947e-06
2.89405e-06
2.89299e-06
2.89149e-06
2.88957e-06
2.88725e-06
2.88458e-06
2.88161e-06
2.87842e-06
2.87512e-06
2.87177e-06
2.86709e-06
2.86067e-06
2.85278e-06
2.84363e-06
2.8334e-06
2.82221e-06
2.81028e-06
2.79782e-06
2.78496e-06
2.77183e-06
2.75843e-06
2.74464e-06
2.73029e-06
2.71522e-06
2.69928e-06
2.68262e-06
2.66571e-06
2.64921e-06
2.63428e-06
2.6231e-06
2.6174e-06
2.61581e-06
2.61567e-06
2.49851e-06
2.5011e-06
2.50823e-06
2.52108e-06
2.53739e-06
2.5551e-06
2.57402e-06
2.59484e-06
2.61807e-06
2.64392e-06
2.67228e-06
2.70262e-06
2.73409e-06
2.76565e-06
2.79583e-06
2.82313e-06
2.84639e-06
2.8648e-06
2.87806e-06
2.88644e-06
2.89038e-06
2.89031e-06
2.88662e-06
2.88058e-06
2.87466e-06
2.86895e-06
2.86342e-06
2.85805e-06
2.85281e-06
2.84767e-06
2.84258e-06
2.83753e-06
2.83248e-06
2.82741e-06
2.82233e-06
2.81723e-06
2.81213e-06
2.8071e-06
2.80223e-06
2.79759e-06
2.79321e-06
2.78911e-06
2.78533e-06
2.78186e-06
2.77873e-06
2.77593e-06
2.77346e-06
2.77131e-06
2.76947e-06
2.76792e-06
2.76663e-06
2.76558e-06
2.76474e-06
2.7641e-06
2.76362e-06
2.7633e-06
2.76311e-06
2.76303e-06
2.76304e-06
2.76308e-06
2.76311e-06
2.76308e-06
2.76294e-06
2.76266e-06
2.76223e-06
2.76161e-06
2.76079e-06
2.75976e-06
2.75852e-06
2.75707e-06
2.75544e-06
2.75363e-06
2.75169e-06
2.74966e-06
2.74759e-06
2.74555e-06
2.74356e-06
2.7401e-06
2.73464e-06
2.72742e-06
2.71865e-06
2.70855e-06
2.69731e-06
2.68522e-06
2.67255e-06
2.65948e-06
2.64616e-06
2.63266e-06
2.61885e-06
2.60459e-06
2.58972e-06
2.57413e-06
2.55794e-06
2.5416e-06
2.52578e-06
2.51163e-06
2.50134e-06
2.49667e-06
2.49625e-06
2.49759e-06
2.3577e-06
2.36158e-06
2.371e-06
2.38748e-06
2.40829e-06
2.43038e-06
2.45241e-06
2.47398e-06
2.49505e-06
2.51586e-06
2.53687e-06
2.55836e-06
2.5805e-06
2.60324e-06
2.6261e-06
2.6483e-06
2.66895e-06
2.68708e-06
2.7019e-06
2.71301e-06
2.72019e-06
2.72335e-06
2.72247e-06
2.7188e-06
2.71509e-06
2.71144e-06
2.70784e-06
2.70427e-06
2.7007e-06
2.6971e-06
2.69346e-06
2.68976e-06
2.68598e-06
2.68211e-06
2.67817e-06
2.6742e-06
2.67025e-06
2.66638e-06
2.66261e-06
2.65894e-06
2.6554e-06
2.652e-06
2.64876e-06
2.64568e-06
2.64278e-06
2.64006e-06
2.63751e-06
2.63515e-06
2.63296e-06
2.63094e-06
2.62906e-06
2.62734e-06
2.62573e-06
2.62424e-06
2.62284e-06
2.62152e-06
2.62025e-06
2.61903e-06
2.61783e-06
2.61664e-06
2.61544e-06
2.61421e-06
2.61295e-06
2.61164e-06
2.61026e-06
2.60881e-06
2.60729e-06
2.60568e-06
2.604e-06
2.60226e-06
2.60045e-06
2.59862e-06
2.59677e-06
2.59494e-06
2.59317e-06
2.5915e-06
2.58992e-06
2.58697e-06
2.58212e-06
2.57558e-06
2.56752e-06
2.55814e-06
2.54761e-06
2.53619e-06
2.52415e-06
2.51166e-06
2.49886e-06
2.48582e-06
2.47243e-06
2.45856e-06
2.44408e-06
2.42885e-06
2.41302e-06
2.39703e-06
2.38157e-06
2.36778e-06
2.35789e-06
2.35367e-06
2.35377e-06
2.35593e-06
2.21522e-06
2.2191e-06
2.22865e-06
2.24572e-06
2.26785e-06
2.29193e-06
2.31627e-06
2.33999e-06
2.36255e-06
2.38393e-06
2.4044e-06
2.42425e-06
2.44373e-06
2.46303e-06
2.48202e-06
2.50039e-06
2.51766e-06
2.53323e-06
2.54644e-06
2.55688e-06
2.56422e-06
2.56819e-06
2.56866e-06
2.56661e-06
2.56442e-06
2.56219e-06
2.55991e-06
2.55757e-06
2.55517e-06
2.55268e-06
2.55011e-06
2.54747e-06
2.54475e-06
2.54198e-06
2.53918e-06
2.53635e-06
2.5335e-06
2.53064e-06
2.52779e-06
2.52496e-06
2.52216e-06
2.51941e-06
2.51672e-06
2.51411e-06
2.51157e-06
2.50913e-06
2.50677e-06
2.50451e-06
2.50235e-06
2.50028e-06
2.49829e-06
2.49639e-06
2.49455e-06
2.49278e-06
2.49106e-06
2.48938e-06
2.48773e-06
2.48609e-06
2.48445e-06
2.4828e-06
2.48114e-06
2.47945e-06
2.47772e-06
2.47596e-06
2.47415e-06
2.4723e-06
2.4704e-06
2.46847e-06
2.46651e-06
2.46452e-06
2.46254e-06
2.46056e-06
2.45862e-06
2.45674e-06
2.45495e-06
2.45327e-06
2.45169e-06
2.44875e-06
2.44393e-06
2.4374e-06
2.42932e-06
2.41987e-06
2.4092e-06
2.39757e-06
2.38524e-06
2.37238e-06
2.35916e-06
2.34565e-06
2.33176e-06
2.31738e-06
2.30242e-06
2.28678e-06
2.27064e-06
2.25452e-06
2.2391e-06
2.22553e-06
2.21584e-06
2.21164e-06
2.21156e-06
2.21355e-06
2.08019e-06
2.08325e-06
2.09154e-06
2.10698e-06
2.12762e-06
2.15073e-06
2.17469e-06
2.19853e-06
2.22154e-06
2.24345e-06
2.26437e-06
2.28445e-06
2.30385e-06
2.32269e-06
2.34086e-06
2.35814e-06
2.37421e-06
2.38862e-06
2.40092e-06
2.41078e-06
2.41795e-06
2.42215e-06
2.42323e-06
2.42197e-06
2.42053e-06
2.41902e-06
2.41744e-06
2.41579e-06
2.41406e-06
2.41224e-06
2.41033e-06
2.40834e-06
2.40627e-06
2.40411e-06
2.40188e-06
2.39958e-06
2.39723e-06
2.39482e-06
2.39238e-06
2.38992e-06
2.38745e-06
2.38498e-06
2.38253e-06
2.3801e-06
2.37771e-06
2.37536e-06
2.37307e-06
2.37083e-06
2.36864e-06
2.36652e-06
2.36445e-06
2.36244e-06
2.36048e-06
2.35856e-06
2.35668e-06
2.35484e-06
2.35301e-06
2.3512e-06
2.34939e-06
2.34757e-06
2.34575e-06
2.3439e-06
2.34203e-06
2.34014e-06
2.33821e-06
2.33625e-06
2.33427e-06
2.33226e-06
2.33024e-06
2.32821e-06
2.32618e-06
2.32418e-06
2.32222e-06
2.32033e-06
2.31852e-06
2.31682e-06
2.31519e-06
2.3121e-06
2.30698e-06
2.30001e-06
2.29137e-06
2.28125e-06
2.26983e-06
2.25739e-06
2.24424e-06
2.23058e-06
2.21663e-06
2.2025e-06
2.18817e-06
2.1736e-06
2.15878e-06
2.14374e-06
2.12877e-06
2.11442e-06
2.10131e-06
2.09023e-06
2.08243e-06
2.07874e-06
2.07798e-06
2.07922e-06
1.98599e-06
1.98698e-06
1.99151e-06
2.00125e-06
2.0154e-06
2.0323e-06
2.05083e-06
2.07016e-06
2.08956e-06
2.10865e-06
2.12737e-06
2.14571e-06
2.1637e-06
2.18134e-06
2.19847e-06
2.2148e-06
2.23e-06
2.24366e-06
2.25533e-06
2.26474e-06
2.27163e-06
2.27575e-06
2.27691e-06
2.2758e-06
2.27455e-06
2.27322e-06
2.2718e-06
2.2703e-06
2.26871e-06
2.26702e-06
2.26525e-06
2.26339e-06
2.26143e-06
2.25939e-06
2.25727e-06
2.25507e-06
2.25281e-06
2.25049e-06
2.24813e-06
2.24573e-06
2.2433e-06
2.24086e-06
2.23842e-06
2.23598e-06
2.23356e-06
2.23117e-06
2.2288e-06
2.22647e-06
2.22418e-06
2.22194e-06
2.21973e-06
2.21757e-06
2.21545e-06
2.21337e-06
2.21131e-06
2.20929e-06
2.20729e-06
2.2053e-06
2.20331e-06
2.20133e-06
2.19935e-06
2.19735e-06
2.19533e-06
2.1933e-06
2.19124e-06
2.18916e-06
2.18706e-06
2.18493e-06
2.1828e-06
2.18066e-06
2.17853e-06
2.17641e-06
2.17433e-06
2.1723e-06
2.17034e-06
2.16848e-06
2.16666e-06
2.16338e-06
2.15807e-06
2.15091e-06
2.14213e-06
2.13194e-06
2.12059e-06
2.10844e-06
2.09586e-06
2.08315e-06
2.07061e-06
2.05844e-06
2.04673e-06
2.03559e-06
2.02516e-06
2.01566e-06
2.00742e-06
2.00079e-06
1.99589e-06
1.99257e-06
1.99027e-06
1.98836e-06
1.98678e-06
1.98647e-06
1.97901e-06
1.97734e-06
1.97634e-06
1.97686e-06
1.97948e-06
1.98423e-06
1.9909e-06
1.99917e-06
2.00863e-06
2.01893e-06
2.02989e-06
2.04139e-06
2.05332e-06
2.06562e-06
2.07806e-06
2.09031e-06
2.10203e-06
2.11275e-06
2.12204e-06
2.12958e-06
2.13505e-06
2.13821e-06
2.13883e-06
2.13755e-06
2.13618e-06
2.13475e-06
2.13326e-06
2.1317e-06
2.13008e-06
2.1284e-06
2.12665e-06
2.12484e-06
2.12296e-06
2.12102e-06
2.11902e-06
2.11697e-06
2.11486e-06
2.1127e-06
2.11051e-06
2.10827e-06
2.10601e-06
2.10372e-06
2.10141e-06
2.09908e-06
2.09675e-06
2.0944e-06
2.09205e-06
2.0897e-06
2.08736e-06
2.08501e-06
2.08267e-06
2.08033e-06
2.07799e-06
2.07566e-06
2.07333e-06
2.07099e-06
2.06866e-06
2.06632e-06
2.06396e-06
2.0616e-06
2.05922e-06
2.05682e-06
2.0544e-06
2.05196e-06
2.0495e-06
2.04701e-06
2.04449e-06
2.04196e-06
2.03941e-06
2.03684e-06
2.03427e-06
2.0317e-06
2.02914e-06
2.02661e-06
2.02412e-06
2.02169e-06
2.01928e-06
2.01584e-06
2.01099e-06
2.00492e-06
1.99787e-06
1.99017e-06
1.98216e-06
1.97429e-06
1.96696e-06
1.96051e-06
1.95522e-06
1.95126e-06
1.94878e-06
1.94794e-06
1.94891e-06
1.9519e-06
1.95696e-06
1.96379e-06
1.97172e-06
1.97943e-06
1.98453e-06
1.98514e-06
1.98301e-06
1.98103e-06
2.06268e-06
2.05962e-06
2.05498e-06
2.04865e-06
2.04177e-06
2.03541e-06
2.03012e-06
2.02612e-06
2.02343e-06
2.022e-06
2.0217e-06
2.02244e-06
2.02413e-06
2.02669e-06
2.03e-06
2.03386e-06
2.03801e-06
2.04214e-06
2.0459e-06
2.04898e-06
2.05111e-06
2.05206e-06
2.05166e-06
2.05054e-06
2.04944e-06
2.04834e-06
2.04723e-06
2.04613e-06
2.04501e-06
2.04387e-06
2.04272e-06
2.04155e-06
2.04034e-06
2.03911e-06
2.03784e-06
2.03652e-06
2.03515e-06
2.03374e-06
2.03226e-06
2.03071e-06
2.02909e-06
2.02739e-06
2.02561e-06
2.02374e-06
2.02178e-06
2.01972e-06
2.01757e-06
2.01532e-06
2.01297e-06
2.01053e-06
2.00799e-06
2.00537e-06
2.00266e-06
1.99987e-06
1.99701e-06
1.99408e-06
1.99108e-06
1.98804e-06
1.98494e-06
1.98179e-06
1.97861e-06
1.97539e-06
1.97214e-06
1.96887e-06
1.96557e-06
1.96225e-06
1.95892e-06
1.95557e-06
1.95222e-06
1.94885e-06
1.94548e-06
1.94211e-06
1.93874e-06
1.93537e-06
1.93201e-06
1.92866e-06
1.92533e-06
1.92206e-06
1.91895e-06
1.91619e-06
1.91405e-06
1.91287e-06
1.91299e-06
1.9147e-06
1.91814e-06
1.92336e-06
1.93031e-06
1.93888e-06
1.94911e-06
1.96102e-06
1.9747e-06
1.99017e-06
2.00715e-06
2.02484e-06
2.04215e-06
2.05729e-06
2.06718e-06
2.06961e-06
2.06771e-06
2.06515e-06
2.19668e-06
2.19363e-06
2.18811e-06
2.17954e-06
2.16906e-06
2.15799e-06
2.14704e-06
2.13662e-06
2.12698e-06
2.1182e-06
2.11025e-06
2.10308e-06
2.09665e-06
2.09094e-06
2.08594e-06
2.08165e-06
2.07805e-06
2.07507e-06
2.07264e-06
2.07062e-06
2.0689e-06
2.06741e-06
2.06608e-06
2.06566e-06
2.06535e-06
2.06507e-06
2.06481e-06
2.06456e-06
2.0643e-06
2.06403e-06
2.06373e-06
2.06339e-06
2.06299e-06
2.06252e-06
2.06196e-06
2.0613e-06
2.06052e-06
2.0596e-06
2.05854e-06
2.05731e-06
2.05591e-06
2.05433e-06
2.05256e-06
2.05058e-06
2.04841e-06
2.04604e-06
2.04346e-06
2.04069e-06
2.03773e-06
2.03459e-06
2.03129e-06
2.02782e-06
2.02421e-06
2.02047e-06
2.01662e-06
2.01267e-06
2.00864e-06
2.00454e-06
2.00039e-06
1.9962e-06
1.99199e-06
1.98778e-06
1.98356e-06
1.97937e-06
1.9752e-06
1.97106e-06
1.96697e-06
1.96294e-06
1.95896e-06
1.95505e-06
1.95121e-06
1.94743e-06
1.94372e-06
1.94007e-06
1.93647e-06
1.93291e-06
1.92941e-06
1.92714e-06
1.92674e-06
1.92844e-06
1.93247e-06
1.93902e-06
1.94823e-06
1.95992e-06
1.97379e-06
1.98944e-06
2.00646e-06
2.0245e-06
2.0435e-06
2.06343e-06
2.08429e-06
2.10608e-06
2.12836e-06
2.15024e-06
2.17063e-06
2.18785e-06
2.19901e-06
2.20212e-06
2.20091e-06
2.19873e-06
2.34819e-06
2.3452e-06
2.33954e-06
2.33055e-06
2.31937e-06
2.3073e-06
2.29502e-06
2.28294e-06
2.27133e-06
2.26029e-06
2.24977e-06
2.23975e-06
2.23018e-06
2.22103e-06
2.21237e-06
2.20427e-06
2.19683e-06
2.19015e-06
2.18432e-06
2.17937e-06
2.17533e-06
2.17225e-06
2.17016e-06
2.16965e-06
2.16918e-06
2.16865e-06
2.16805e-06
2.16735e-06
2.16654e-06
2.1656e-06
2.1645e-06
2.16325e-06
2.16181e-06
2.16019e-06
2.15836e-06
2.15633e-06
2.15407e-06
2.15159e-06
2.14887e-06
2.14593e-06
2.14276e-06
2.13936e-06
2.13574e-06
2.13192e-06
2.1279e-06
2.12369e-06
2.11932e-06
2.11479e-06
2.11013e-06
2.10535e-06
2.10047e-06
2.09551e-06
2.0905e-06
2.08544e-06
2.08037e-06
2.07529e-06
2.07023e-06
2.06521e-06
2.06025e-06
2.05537e-06
2.05058e-06
2.04591e-06
2.04137e-06
2.037e-06
2.0328e-06
2.02881e-06
2.02503e-06
2.0215e-06
2.01822e-06
2.01521e-06
2.01248e-06
2.01003e-06
2.00785e-06
2.00593e-06
2.00424e-06
2.00272e-06
2.0014e-06
2.00227e-06
2.00647e-06
2.01422e-06
2.02558e-06
2.04045e-06
2.05851e-06
2.07908e-06
2.10135e-06
2.12461e-06
2.14821e-06
2.17172e-06
2.19506e-06
2.21822e-06
2.24121e-06
2.26402e-06
2.28623e-06
2.30706e-06
2.32564e-06
2.34075e-06
2.35026e-06
2.35285e-06
2.35196e-06
2.35004e-06
2.4906e-06
2.48624e-06
2.47942e-06
2.46966e-06
2.45801e-06
2.44559e-06
2.43301e-06
2.42058e-06
2.40853e-06
2.39693e-06
2.38576e-06
2.37496e-06
2.3645e-06
2.35435e-06
2.34456e-06
2.33522e-06
2.32642e-06
2.31826e-06
2.31085e-06
2.30426e-06
2.29852e-06
2.29368e-06
2.28979e-06
2.28635e-06
2.28273e-06
2.2789e-06
2.27487e-06
2.27063e-06
2.2662e-06
2.26157e-06
2.25677e-06
2.25179e-06
2.24665e-06
2.24136e-06
2.23595e-06
2.23041e-06
2.22478e-06
2.21906e-06
2.21328e-06
2.20745e-06
2.2016e-06
2.19573e-06
2.18986e-06
2.184e-06
2.17818e-06
2.1724e-06
2.16667e-06
2.16102e-06
2.15544e-06
2.14996e-06
2.14459e-06