/*--------------------------------*- C++ -*----------------------------------*\
| =========                 |                                                 |
| \\      /  F ield         | OpenFOAM: The Open Source CFD Toolbox           |
|  \\    /   O peration     | Version:  v1912                                 |
|   \\  /    A nd           | Website:  www.openfoam.com                      |
|    \\/     M anipulation  |                                                 |
\*---------------------------------------------------------------------------*/
FoamFile
{
    version     2.0;
    format      ascii;
    class       volScalarField;
    location    "10000";
    object      omega;
}
// * * * * * * * * * * * * * * * * * * * * * * * * * * * * * * * * * * * * * //

dimensions      [0 0 -1 0 0 0 0];


internalField   nonuniform List<scalar> 
3000
(
202.46
202.161
207.134
227.917
257.527
274.723
277.005
267.181
248.309
227.947
210.917
196.715
184.852
174.631
163.829
151.843
139.159
126.318
114.434
104.796
97.5236
92.6762
90.3802
90.3164
90.3372
90.3376
90.3381
90.3384
90.3385
90.3383
90.3377
90.3368
90.3359
90.3353
90.3353
90.3366
90.3423
90.3504
90.3597
90.3683
90.3748
90.3778
90.3772
90.373
90.366
90.3575
90.3495
90.3432
90.3388
90.3363
90.3349
90.3343
90.3341
90.3341
90.3341
90.3341
90.334
90.334
90.3342
90.3361
90.3417
90.354
90.3768
90.4146
90.4715
90.5512
90.656
90.7858
90.9386
91.1092
91.2897
91.4687
91.6309
91.7531
91.7977
91.7171
91.481
91.3265
93.5093
98.3215
105.595
115.238
127.15
139.957
152.576
164.449
175.122
185.135
196.925
210.924
227.887
248.378
267.28
277.616
275.947
260.169
232.43
211.845
205.672
203.754
51.8243
50.5685
57.7213
67.0399
56.2953
43.66
41.9792
40.7252
38.6176
35.8043
33.4585
32.137
30.3568
28.2426
25.9411
23.7264
21.4603
19.2744
17.3416
15.8849
15.0399
14.8157
14.896
14.6131
14.3611
14.3225
14.3347
14.3843
14.4396
14.4932
14.5724
14.8106
15.1257
15.4734
15.8467
16.2357
16.5841
16.8326
16.949
16.9194
16.7441
16.4388
16.0303
15.5934
15.1346
14.9427
14.8289
14.7736
14.7788
14.8392
14.9472
15.1076
15.3608
15.6945
15.97
16.3888
17.0601
17.8269
18.6892
19.5905
20.4657
21.2609
21.9387
22.4747
22.8544
23.0697
23.1171
22.9952
22.703
22.2364
21.587
20.7431
19.6962
18.4627
17.1352
15.9615
15.8314
16.6328
17.6354
18.5584
19.5195
20.5725
21.7095
22.7522
23.6926
24.5686
25.3862
26.3031
27.566
28.9993
31.3604
34.0372
35.8412
36.1795
34.9672
32.766
31.9175
38.9561
49.1398
54.2837
20.0728
21.1366
26.3861
34.9633
35.853
22.5799
12.17
10.7378
10.5009
10.098
9.76837
9.76739
9.23316
8.27868
7.33971
6.5573
5.86062
5.28239
4.84533
4.58238
4.50227
4.57524
4.75003
4.77515
4.70909
4.78267
4.90698
5.08241
5.38056
5.78569
6.22482
6.63189
6.94614
7.16392
7.28931
7.3269
7.27766
7.14567
6.94243
6.68631
6.40353
6.12587
5.88819
5.72972
5.69362
5.75352
5.87382
6.05453
6.29729
6.60442
6.97677
7.40839
7.86335
8.32496
8.80424
9.2306
9.61492
9.936
10.1897
10.3691
10.4673
10.4796
10.4033
10.2375
9.98246
9.63968
9.21245
8.70671
8.13186
7.50181
6.83588
6.1623
5.51965
4.96118
4.55817
4.42416
4.47273
4.69089
4.92829
5.12664
5.32122
5.53035
5.75462
5.96864
6.17533
6.37894
6.57575
6.78197
7.02548
7.26547
7.56595
7.96636
8.107
7.96399
7.59944
7.17442
7.07627
8.97838
14.6211
19.2715
8.3257
9.50154
13.2628
20.2082
24.642
22.6471
10.6049
4.62908
3.95329
3.87513
3.85763
3.91547
3.75273
3.36486
3.06418
2.86381
2.73222
2.66368
2.64983
2.69052
2.79079
2.95762
3.12917
3.3015
3.44329
3.62958
3.83948
4.04209
4.23777
4.41194
4.54422
4.61781
4.62648
4.576
4.47554
4.3368
4.17377
4.00244
3.83958
3.70151
3.6021
3.55063
3.55143
3.60498
3.7103
3.85526
4.03816
4.25647
4.50394
4.76666
5.02061
5.23712
5.42893
5.62533
5.79778
5.92379
5.99988
6.02268
5.99325
5.91464
5.79092
5.62663
5.42652
5.19548
4.93872
4.66243
4.3741
4.08286
3.79913
3.53381
3.29743
3.09914
2.94528
2.83864
2.77974
2.75519
2.75148
2.79962
2.89182
3.00504
3.13375
3.27664
3.43035
3.58554
3.73478
3.87415
3.99489
4.08067
4.11643
4.09218
4.17271
4.26612
4.29996
4.26604
4.16691
4.02235
3.90153
3.99789
5.57976
7.56609
4.25615
4.8278
6.98528
11.86
16.7086
18.2248
16.0573
6.18707
2.66366
2.13685
2.06344
2.08194
2.09983
2.03557
2.00994
2.01504
2.04353
2.09558
2.17162
2.27905
2.43564
2.65177
2.88551
3.0029
3.05455
3.10702
3.15721
3.19898
3.22575
3.22915
3.2022
3.14236
3.05283
2.94159
2.81902
2.69615
2.58327
2.48871
2.41796
2.37407
2.35762
2.36746
2.40192
2.45983
2.53882
2.63418
2.74443
2.86754
3.00057
3.13939
3.27969
3.42078
3.568
3.69401
3.78982
3.84985
3.87353
3.86324
3.82358
3.76024
3.67897
3.5849
3.48249
3.37554
3.26751
3.16172
3.06139
2.96943
2.88794
2.81777
2.7585
2.70847
2.66492
2.62412
2.58609
2.55194
2.53313
2.55041
2.61035
2.69886
2.80562
2.92491
3.05231
3.17999
3.29742
3.40548
3.48507
3.50259
3.49057
3.52055
3.58005
3.62228
3.62509
3.58266
3.49277
3.36581
3.24413
3.18172
3.45251
3.99554
2.96241
3.14109
4.12273
7.05765
11.0263
13.6816
14.0608
12.6402
5.43097
2.28404
1.71618
1.49355
1.53583
1.56795
1.60087
1.63643
1.67277
1.71952
1.77832
1.85433
1.95897
2.08887
2.20482
2.24206
2.23719
2.2359
2.23493
2.22808
2.20966
2.17596
2.12614
2.06257
1.99033
1.91596
1.84602
1.78591
1.73936
1.70827
1.6927
1.69252
1.7069
1.73499
1.7763
1.83074
1.89863
1.97228
2.05225
2.13956
2.23517
2.33976
2.45354
2.57621
2.68991
2.7891
2.86934
2.92855
2.96725
2.98785
2.99389
2.98908
2.97669
2.95921
2.93836
2.91534
2.89101
2.86605
2.841
2.81609
2.79101
2.76503
2.73726
2.70667
2.67131
2.62839
2.584
2.54145
2.51318
2.51475
2.55432
2.6229
2.70969
2.80577
2.90722
3.0073
3.09047
3.16462
3.18599
3.19201
3.21582
3.2547
3.28947
3.29927
3.27249
3.20672
3.10362
2.97604
2.86037
2.79402
2.81596
2.92013
2.47464
2.51225
2.88842
4.4196
7.14298
9.74267
11.1831
11.3416
10.3016
7.16861
2.96257
1.5352
1.22752
1.23546
1.26061
1.29111
1.31628
1.34132
1.36583
1.39217
1.4283
1.47716
1.5282
1.56537
1.56819
1.57471
1.58212
1.58632
1.58465
1.57642
1.56295
1.54707
1.53235
1.52222
1.51933
1.52528
1.54069
1.56537
1.59842
1.63907
1.68612
1.7383
1.79446
1.85381
1.91608
1.97923
2.04391
2.11126
2.18228
2.25779
2.33842
2.4211
2.501
2.57501
2.64069
2.69677
2.74326
2.78112
2.8118
2.83668
2.85673
2.87241
2.88386
2.89106
2.89395
2.8925
2.8867
2.87628
2.86079
2.83989
2.81354
2.78093
2.73784
2.68772
2.63413
2.58265
2.54417
2.53185
2.55291
2.6019
2.66852
2.73934
2.81249
2.88162
2.93024
2.95877
2.96481
2.98862
3.01258
3.03262
3.03994
3.0217
2.97121
2.88912
2.78038
2.65882
2.55447
2.4939
2.47911
2.48683
2.19802
2.20017
2.33533
3.04559
4.66444
6.67217
8.31647
9.21692
9.31989
8.70542
8.34916
4.02761
2.15073
1.29941
1.09798
1.1031
1.12668
1.15191
1.17299
1.18538
1.19304
1.20977
1.24403
1.29129
1.3224
1.35408
1.38533
1.41449
1.44114
1.46598
1.49049
1.51635
1.54499
1.57738
1.61403
1.65515
1.70077
1.75085
1.80504
1.86284
1.92312
1.98432
2.04481
2.10326
2.15963
2.2139
2.26732
2.32066
2.37435
2.42817
2.48182
2.53692
2.59094
2.64289
2.69171
2.73676
2.77797
2.81575
2.8508
2.88365
2.91426
2.94224
2.96706
2.98811
3.00456
3.01529
3.01882
3.0136
2.99898
2.9759
2.9461
2.90658
2.84504
2.78333
2.71861
2.65721
2.60646
2.58145
2.58361
2.6106
2.65473
2.6991
2.74148
2.77064
2.79072
2.79658
2.80882
2.81964
2.82473
2.82138
2.8035
2.76268
2.69574
2.60564
2.49896
2.38861
2.29799
2.24537
2.22643
2.21736
1.98703
1.98278
2.03652
2.34374
3.19347
4.50152
5.87755
6.96602
7.58724
7.73494
7.71895
7.14031
6.51565
4.38954
2.28757
1.7538
1.44864
1.36195
1.37625
1.38487
1.35719
1.31894
1.3259
1.37103
1.42185
1.46997
1.51494
1.55636
1.59517
1.63304
1.67142
1.71081
1.75085
1.79104
1.83117
1.87155
1.91327
1.95804
2.00777
2.06381
2.12596
2.19191
2.25731
2.3172
2.36962
2.41358
2.45066
2.48377
2.51565
2.54804
2.58187
2.62056
2.66677
2.70994
2.74997
2.78667
2.82043
2.85215
2.88471
2.91789
2.95067
2.98242
3.01266
3.04089
3.06614
3.08619
3.09742
3.09628
3.0824
3.05884
3.03553
2.97949
2.91606
2.85168
2.78887
2.73125
2.67767
2.64544
2.62998
2.63275
2.64787
2.66758
2.67824
2.67718
2.6772
2.67303
2.66548
2.65427
2.63717
2.61147
2.57267
2.51555
2.43945
2.34847
2.24935
2.15285
2.0764
2.03226
2.01467
2.00404
1.80569
1.80135
1.82875
1.96356
2.36848
3.106
4.04761
4.98022
5.7253
6.20419
6.48491
6.5166
6.39865
6.01167
5.42358
5.0049
3.89481
2.79018
2.5219
2.40546
2.21224
1.86482
1.6836
1.65925
1.69298
1.72729
1.76639
1.80004
1.82935
1.86282
1.90364
1.9474
1.99292
2.04005
2.08966
2.14274
2.199
2.2565
2.31301
2.3692
2.43093
2.5049
2.58536
2.6672
2.73167
2.77764
2.80582
2.81888
2.82146
2.81939
2.81645
2.80727
2.8113
2.81678
2.8244
2.8339
2.84487
2.85849
2.87499
2.89272
2.91021
2.92674
2.94148
2.95409
2.96442
2.97214
2.97565
2.97171
2.95734
2.9346
2.90191
2.85612
2.82407
2.79603
2.77053
2.74707
2.72208
2.69736
2.67731
2.66316
2.6484
2.63558
2.61866
2.59763
2.57259
2.54386
2.51255
2.47895
2.44121
2.39693
2.34298
2.2764
2.19797
2.11185
2.02383
1.9421
1.87914
1.84314
1.82829
1.8191
1.64121
1.63802
1.65582
1.72298
1.90828
2.27766
2.82366
3.46354
4.08683
4.61218
5.02158
5.29685
5.45126
5.47032
5.36609
5.22222
4.99407
4.75356
4.63465
4.55256
4.33948
3.66185
3.52476
3.50342
3.44342
3.31167
3.17147
3.05724
2.95856
2.87105
2.79553
2.75186
2.72012
2.69786
2.68917
2.6994
2.73183
2.7864
2.85917
2.94358
3.03229
3.11393
3.18207
3.23985
3.28319
3.3144
3.33543
3.34763
3.35155
3.34769
3.3387
3.33043
3.30104
3.26088
3.21552
3.16925
3.12525
3.08684
3.05322
3.02329
2.99666
2.97279
2.95107
2.93081
2.91124
2.89161
2.87128
2.84958
2.82624
2.80486
2.78223
2.76563
2.75637
2.75218
2.75001
2.74633
2.73953
2.72581
2.70258
2.67135
2.63394
2.59116
2.54344
2.4925
2.44002
2.38712
2.33467
2.28268
2.22942
2.17291
2.11105
2.04225
1.96773
1.89095
1.81622
1.74925
1.69873
1.67012
1.65827
1.65119
1.48753
1.48561
1.49885
1.5392
1.62879
1.80183
2.07869
2.44505
2.8565
3.26519
3.6419
3.96519
4.22482
4.41225
4.52332
4.57032
4.55505
4.49595
4.43382
4.38807
4.38037
4.42189
4.44549
4.45418
4.45519
4.44727
4.4138
4.35513
4.28437
4.20684
4.12121
4.02926
3.93441
3.84154
3.75609
3.68309
3.62627
3.58763
3.5679
3.56623
3.57701
3.58863
3.59341
3.58872
3.57769
3.56346
3.54855
3.5347
3.52286
3.51323
3.50534
3.49947
3.49535
3.48829
3.47512
3.45538
3.42945
3.39849
3.36403
3.32763
3.29055
3.25374
3.21787
3.18336
3.15048
3.11938
3.08991
3.06205
3.03521
3.00856
2.9815
2.95495
2.92851
2.90119
2.87199
2.83977
2.80431
2.75823
2.69956
2.63142
2.55738
2.48042
2.40267
2.32642
2.25323
2.18382
2.11844
2.05661
1.99656
1.93662
1.8753
1.81163
1.7466
1.68262
1.6225
1.56994
1.53082
1.50879
1.4997
1.49461
1.3432
1.34222
1.35241
1.38007
1.42991
1.51293
1.64303
1.82527
2.05001
2.30004
2.55985
2.81508
3.0543
3.2678
3.44577
3.58307
3.67758
3.73183
3.75526
3.75762
3.74566
3.72208
3.68434
3.63939
3.60266
3.57387
3.55205
3.53568
3.52307
3.51284
3.50388
3.49494
3.48472
3.47218
3.45675
3.43844
3.41776
3.39536
3.37152
3.34525
3.31435
3.27991
3.24457
3.2101
3.17791
3.149
3.12399
3.10317
3.08657
3.07402
3.06519
3.05969
3.05724
3.05738
3.05911
3.06106
3.06254
3.06298
3.062
3.05938
3.05507
3.0491
3.0416
3.03273
3.02265
3.01143
2.99861
2.98252
2.9629
2.93937
2.91197
2.88052
2.84488
2.80503
2.76123
2.71388
2.66357
2.59708
2.51467
2.42381
2.33048
2.23864
2.15052
2.06794
1.99172
1.92187
1.85802
1.7993
1.74408
1.69095
1.63879
1.58689
1.5358
1.48697
1.44205
1.40329
1.37459
1.35839
1.35158
1.34806
1.21071
1.21023
1.21772
1.23714
1.26838
1.31265
1.37475
1.45921
1.5664
1.69332
1.83607
1.98961
2.1486
2.30746
2.45882
2.59552
2.71177
2.8034
2.86919
2.91096
2.93097
2.93099
2.91218
2.88131
2.8527
2.82709
2.80443
2.78445
2.76679
2.75103
2.73664
2.72298
2.70932
2.6949
2.679
2.66103
2.64058
2.61745
2.59161
2.56342
2.53452
2.50638
2.47958
2.45455
2.4316
2.41096
2.39269
2.3768
2.36322
2.35181
2.34241
2.33481
2.32887
2.32458
2.3222
2.32141
2.32165
2.32259
2.32389
2.32524
2.32636
2.32696
2.32679
2.32559
2.32305
2.31821
2.31085
2.30146
2.28986
2.27594
2.25958
2.24074
2.21949
2.19601
2.17059
2.14366
2.11555
2.07663
2.02589
1.96761
1.90562
1.84286
1.78128
1.72264
1.66791
1.61738
1.571
1.52831
1.48833
1.45022
1.41332
1.37716
1.34205
1.3088
1.27836
1.25212
1.2326
1.22145
1.21642
1.214
1.09562
1.0954
1.10041
1.11319
1.13293
1.15845
1.19036
1.23005
1.27837
1.33557
1.40176
1.47642
1.55854
1.64661
1.73751
1.82716
1.91125
1.98541
2.04609
2.09165
2.12124
2.13444
2.13126
2.11695
2.10315
2.09032
2.07838
2.06716
2.05644
2.04599
2.03554
2.02483
2.01358
2.00154
1.9885
1.97433
1.959
1.94257
1.92526
1.90772
1.89059
1.87407
1.85832
1.84349
1.82965
1.81687
1.80516
1.7945
1.78485
1.77615
1.76833
1.76129
1.75495
1.74927
1.74427
1.74003
1.73651
1.73347
1.73069
1.72796
1.7251
1.72192
1.7182
1.7137
1.70821
1.70198
1.69492
1.68702
1.67825
1.66859
1.65809
1.6468
1.63484
1.62238
1.6096
1.59676
1.584
1.56668
1.54384
1.51696
1.4875
1.4567
1.42551
1.3949
1.36555
1.33777
1.31171
1.28725
1.26399
1.24154
1.21958
1.19792
1.17672
1.15648
1.13779
1.12155
1.10939
1.10243
1.09917
1.09767
0.997993
0.998455
1.00257
1.01194
1.02567
1.04235
1.06153
1.0833
1.10776
1.13521
1.16614
1.20089
1.23967
1.28246
1.32839
1.37588
1.42281
1.46664
1.50475
1.53533
1.55695
1.56853
1.56948
1.56287
1.55623
1.54983
1.5436
1.53746
1.53134
1.52512
1.5187
1.51199
1.5049
1.49735
1.48932
1.48079
1.47178
1.46246
1.45313
1.444
1.43514
1.4266
1.41845
1.4107
1.4034
1.39655
1.39015
1.38418
1.37862
1.37344
1.36859
1.36403
1.35971
1.35559
1.35162
1.34779
1.34407
1.34043
1.33684
1.33321
1.32948
1.32557
1.32143
1.317
1.31228
1.30724
1.30188
1.29621
1.29024
1.284
1.27755
1.27094
1.26425
1.25758
1.25104
1.24476
1.23879
1.23112
1.22119
1.20952
1.19662
1.18293
1.16881
1.15467
1.14083
1.12744
1.11461
1.10231
1.09034
1.07854
1.06677
1.05491
1.0431
1.03166
1.02096
1.01161
1.00464
1.0008
0.999206
0.998807
0.924059
0.924694
0.928099
0.935424
0.945849
0.958129
0.97165
0.986135
1.0014
1.0175
1.03468
1.05324
1.07341
1.09541
1.11904
1.14372
1.16856
1.19229
1.21348
1.23098
1.24376
1.25099
1.25213
1.24885
1.24544
1.24207
1.23868
1.23525
1.23174
1.2281
1.22429
1.22028
1.21604
1.21157
1.20689
1.20205
1.19718
1.19233
1.18756
1.18288
1.17834
1.17394
1.16973
1.1657
1.16187
1.15825
1.15483
1.1516
1.14854
1.14564
1.14287
1.14021
1.13763
1.1351
1.13259
1.13007
1.12752
1.12491
1.12222
1.11944
1.11654
1.11352
1.11036
1.10706
1.10362
1.10003
1.09631
1.09248
1.08854
1.08453
1.08049
1.07645
1.07246
1.06858
1.06486
1.06138
1.05817
1.05416
1.04907
1.04311
1.03648
1.02939
1.02197
1.01443
1.00691
0.999515
0.992295
0.985256
0.978306
0.971365
0.964371
0.957294
0.950253
0.943477
0.937225
0.931821
0.927793
0.92551
0.924514
0.924415
0.877707
0.877454
0.879085
0.883513
0.890313
0.89863
0.90794
0.917905
0.928251
0.938877
0.949864
0.961325
0.973387
0.986171
0.999604
1.01344
1.02727
1.04048
1.05233
1.06222
1.06956
1.07384
1.07475
1.07317
1.07146
1.06972
1.06794
1.06609
1.06416
1.06213
1.06001
1.05779
1.05548
1.05312
1.05071
1.04827
1.04582
1.04337
1.04094
1.03856
1.03624
1.03399
1.03182
1.02975
1.02778
1.02591
1.02413
1.02245
1.02084
1.0193
1.01782
1.01637
1.01493
1.0135
1.01204
1.01054
1.00899
1.00736
1.00564
1.00382
1.0019
0.999871
0.997727
0.995471
0.99311
0.99065
0.988104
0.985489
0.982824
0.980131
0.977438
0.974776
0.972177
0.969679
0.967319
0.965139
0.963152
0.960612
0.957288
0.953308
0.948804
0.943895
0.938686
0.933331
0.927962
0.922678
0.917556
0.912635
0.907896
0.903339
0.898986
0.894902
0.891235
0.888156
0.88575
0.883947
0.882456
0.880975
0.879506
0.87865
0.869564
0.867156
0.865417
0.865024
0.866256
0.86893
0.872797
0.877593
0.883046
0.888977
0.895335
0.902103
0.909291
0.916917
0.924898
0.933064
0.941175
0.948885
0.955784
0.961533
0.965806
0.968313
0.968848
0.967892
0.966862
0.965813
0.964737
0.963627
0.962475
0.961278
0.960032
0.958739
0.9574
0.956023
0.954613
0.953181
0.951737
0.950291
0.948856
0.947441
0.946057
0.944711
0.943412
0.942162
0.940964
0.939817
0.938718
0.937662
0.936643
0.93565
0.934675
0.933705
0.932728
0.931732
0.930705
0.929634
0.928508
0.927318
0.926055
0.924713
0.923287
0.921776
0.92018
0.918502
0.916747
0.914925
0.913045
0.91112
0.909166
0.907201
0.905246
0.903322
0.901454
0.899668
0.897988
0.896442
0.895037
0.893156
0.890605
0.8875
0.883979
0.880186
0.876274
0.872433
0.868837
0.865621
0.862895
0.860738
0.859214
0.858422
0.858508
0.859674
0.862102
0.8658
0.870479
0.875265
0.878255
0.877811
0.874933
0.872207
0.9434
0.936499
0.927732
0.917401
0.907344
0.898844
0.892255
0.887529
0.884445
0.882731
0.882163
0.882569
0.883823
0.885828
0.888456
0.891541
0.894882
0.898227
0.901294
0.903845
0.905655
0.906525
0.906303
0.905277
0.904256
0.903236
0.902212
0.901179
0.900132
0.899068
0.897985
0.896884
0.895765
0.894632
0.893488
0.892339
0.89119
0.890045
0.888911
0.887792
0.886692
0.885613
0.884556
0.883523
0.88251
0.881515
0.880533
0.879559
0.878586
0.877608
0.876616
0.875603
0.874561
0.873482
0.872359
0.871187
0.869959
0.868671
0.867321
0.865906
0.864426
0.862884
0.86128
0.859621
0.857911
0.856157
0.85437
0.852559
0.850735
0.848912
0.847103
0.845324
0.843591
0.841919
0.840324
0.838822
0.837426
0.83588
0.834144
0.83236
0.830716
0.829437
0.828767
0.828942
0.830149
0.83253
0.836179
0.841177
0.847696
0.855974
0.866331
0.879166
0.894613
0.912273
0.931083
0.948658
0.960161
0.961552
0.956016
0.949536
1.18969
1.17459
1.15234
1.12239
1.08971
1.05864
1.03086
1.00685
0.98654
0.96954
0.955316
0.943436
0.933549
0.925383
0.918744
0.913448
0.909295
0.90607
0.903539
0.901473
0.899663
0.897935
0.896157
0.894561
0.893076
0.891647
0.89027
0.888941
0.887655
0.886408
0.885199
0.884025
0.882887
0.881783
0.880713
0.879674
0.878666
0.877686
0.876729
0.875791
0.874866
0.873945
0.873021
0.872084
0.871123
0.87013
0.869092
0.868
0.866845
0.865619
0.864314
0.862925
0.861448
0.859881
0.858225
0.856479
0.854648
0.852735
0.850748
0.848692
0.846577
0.84441
0.842201
0.839959
0.837695
0.835416
0.833133
0.830854
0.828587
0.826339
0.824116
0.821924
0.819765
0.817641
0.815554
0.8135
0.811527
0.810562
0.811057
0.813157
0.817082
0.82311
0.831549
0.842536
0.856115
0.872279
0.890955
0.912113
0.936063
0.963215
0.994115
1.0294
1.06901
1.11172
1.15515
1.19449
1.22025
1.22465
1.21487
1.2019
1.75384
1.72555
1.68058
1.61655
1.5438
1.47213
1.40573
1.34614
1.29378
1.2481
1.20809
1.17289
1.14179
1.11423
1.08996
1.06879
1.05055
1.0351
1.02228
1.01182
1.00352
0.997235
0.992858
0.990758
0.988992
0.987413
0.986015
0.984789
0.983728
0.982826
0.982077
0.981474
0.98101
0.980675
0.980457
0.980343
0.980315
0.980353
0.980436
0.980537
0.980629
0.980685
0.980673
0.980565
0.98033
0.979943
0.979377
0.978611
0.977628
0.976415
0.974963
0.97327
0.971338
0.969175
0.966793
0.964209
0.961443
0.95852
0.955465
0.952306
0.94907
0.945786
0.942481
0.939179
0.935903
0.932671
0.9295
0.926399
0.923373
0.920421
0.917537
0.914706
0.911906
0.909108
0.906278
0.903374
0.900519
0.90144
0.907712
0.919354
0.936452
0.959147
0.987593
1.02145
1.06022
1.10343
1.15054
1.20122
1.25594
1.31529
1.38012
1.45134
1.52845
1.60902
1.68877
1.75959
1.80567
1.81415
1.79832
1.77538
2.83233
2.78516
2.70643
2.59055
2.45574
2.32018
2.19213
2.07499
1.97016
1.87702
1.79391
1.71935
1.65212
1.59128
1.53651
1.48775
1.44498
1.40825
1.37761
1.35285
1.33379
1.3204
1.31268
1.31148
1.31103
1.31102
1.31144
1.31226
1.31347
1.31505
1.31698
1.31925
1.32183
1.3247
1.3278
1.33112
1.33459
1.33816
1.34178
1.34539
1.34891
1.35228
1.35543
1.3583
1.36081
1.36291
1.36456
1.3657
1.36631
1.36638
1.36588
1.36483
1.36324
1.36114
1.35857
1.35559
1.35224
1.34859
1.34471
1.34068
1.33656
1.33242
1.32834
1.32437
1.32056
1.31697
1.31362
1.31053
1.30771
1.30515
1.3028
1.30062
1.29853
1.29643
1.2942
1.2917
1.28917
1.29546
1.31409
1.34463
1.38662
1.43957
1.50301
1.57544
1.65524
1.74099
1.83134
1.92548
2.02406
2.12798
2.23842
2.35671
2.48185
2.60992
2.73454
2.84381
2.91441
2.92727
2.90345
2.86674
4.66248
4.59211
4.46941
4.2838
4.06374
3.83893
3.62349
3.42373
3.24267
3.07988
2.93287
2.79945
2.67772
2.56624
2.46476
2.37353
2.29287
2.22334
2.16547
2.1192
2.08458
2.06181
2.0512
2.05452
2.05926
2.06487
2.0713
2.07849
2.0864
2.09501
2.10425
2.11408
2.12445
2.13529
2.14653
2.15808
2.16984
2.1817
2.19356
2.20529
2.21676
2.22784
2.23841
2.24836
2.25756
2.26591
2.27334
2.27978
2.28518
2.28953
2.29281
2.29506
2.29632
2.29667
2.2962
2.295
2.29323
2.291
2.28847
2.28578
2.2831
2.28057
2.27833
2.27651
2.27522
2.27455
2.27456
2.27529
2.27673
2.27885
2.28156
2.28473
2.28816
2.29162
2.29478
2.29729
2.29944
2.31744
2.3574
2.41784
2.49704
2.59321
2.70456
2.82776
2.95958
3.09735
3.2388
3.38266
3.53
3.6822
3.84109
4.00863
4.18355
4.36072
4.53194
4.6817
4.77874
4.79663
4.76429
4.71167
7.53027
7.43888
7.26737
6.99802
6.67175
6.33325
6.0046
5.69639
5.4142
5.15816
4.92495
4.71155
4.5153
4.33417
4.16816
4.0181
3.88499
3.77026
3.67532
3.6005
3.54629
3.51339
3.50298
3.51765
3.53465
3.55306
3.57275
3.59362
3.61557
3.63853
3.66242
3.68713
3.71258
3.73864
3.7652
3.79211
3.81921
3.84634
3.87331
3.89994
3.92603
3.95139
3.97584
3.99919
4.02129
4.042
4.06119
4.0788
4.09477
4.10908
4.12177
4.13288
4.14252
4.15082
4.15796
4.16412
4.16953
4.17443
4.17908
4.18372
4.18863
4.19406
4.20022
4.20734
4.21559
4.22511
4.23597
4.24821
4.2618
4.27661
4.29248
4.30911
4.32612
4.34301
4.35912
4.37365
4.38664
4.42215
4.48876
4.58338
4.70243
4.84239
4.99997
5.17008
5.34805
5.53043
5.71445
5.89883
6.08539
6.27632
6.47436
6.68245
6.89958
7.12011
7.33484
7.52568
7.6541
7.68512
7.65187
7.589
11.7405
11.6374
11.4203
11.0623
10.618
10.1495
9.68882
9.25233
8.84928
8.48094
8.14335
7.83266
7.54543
7.27906
7.034
6.81199
6.61509
6.44612
6.30783
6.20124
6.12752
6.08819
6.09446
6.13069
6.17048
6.21233
6.25593
6.30107
6.34754
6.39518
6.44382
6.4933
6.54345
6.59411
6.6451
6.69621
6.74725
6.798
6.84824
6.89772
6.94623
6.99354
7.03944
7.08373
7.12623
7.16681
7.20536
7.2418
7.27611
7.30832
7.33847
7.36668
7.3931
7.41793
7.4414
7.46377
7.48533
7.50641
7.52731
7.54836
7.56988
7.59217
7.61548
7.64004
7.66604
7.69358
7.72272
7.75341
7.78552
7.81886
7.85307
7.88773
7.92223
7.95583
7.98747
8.01569
8.03967
8.08759
8.16941
8.28106
8.41795
8.57589
8.75134
8.939
9.13426
9.33396
9.53568
9.73852
9.94488
10.1575
10.3799
10.6157
10.8646
11.1216
11.3779
11.6149
11.7899
11.8623
11.8513
11.7953
17.2725
17.1681
16.9326
16.5267
16.0074
15.4476
14.8875
14.3493
13.847
13.3846
12.9584
12.5644
12.1988
11.8587
11.5454
11.262
11.0123
10.8012
10.6336
10.5117
10.4377
10.415
10.4609
10.5442
10.6305
10.7171
10.8037
10.8898
10.9751
11.0594
11.1426
11.2246
11.3053
11.3846
11.4624
11.5386
11.6132
11.6861
11.7571
11.8262
11.8933
11.9583
12.021
12.0816
12.1399
12.1958
12.2495
12.3009
12.3501
12.3971
12.4422
12.4854
12.527
12.567
12.6058
12.6435
12.6803
12.7166
12.7525
12.7883
12.8241
12.8601
12.8965
12.9334
12.9708
13.0088
13.0472
13.086
13.1249
13.1637
13.2019
13.2393
13.2751
13.3086
13.3387
13.3636
13.3811
13.4148
13.4751
13.5602
13.668
13.7965
13.9445
14.1087
14.286
14.4741
14.6707
14.8746
15.0874
15.3112
15.5492
15.8054
16.081
16.3725
16.6729
16.9654
17.2033
17.3519
17.3703
17.323
24.1803
24.1786
24.0682
23.7747
23.33
22.8075
22.2569
21.7106
21.1921
20.7114
20.2674
19.8568
19.4759
19.1212
18.7949
18.502
18.2489
18.0432
17.8929
17.8012
17.7699
17.8072
17.9043
18.0302
18.1482
18.2564
18.3554
18.4461
18.5291
18.6049
18.6743
18.7376
18.7954
18.8481
18.8961
18.9397
18.9793
19.0151
19.0475
19.0768
19.1031
19.1267
19.1479
19.167
19.1841
19.1995
19.2133
19.226
19.2376
19.2483
19.2584
19.268
19.2773
19.2864
19.2954
19.3045
19.3137
19.3229
19.3323
19.3418
19.3514
19.3609
19.3703
19.3793
19.3879
19.3957
19.4025
19.4081
19.4121
19.4142
19.4139
19.411
19.4048
19.3949
19.3804
19.3594
19.3297
19.3102
19.315
19.3481
19.4111
19.5048
19.6294
19.7826
19.9608
20.161
20.3799
20.6153
20.8692
21.145
21.4483
21.7874
22.1669
22.5838
23.0283
23.4766
23.8454
24.075
24.1515
24.1595
42.5121
42.7316
42.7047
42.2538
41.4437
40.4591
39.432
38.4341
37.5065
36.6623
35.893
35.1862
34.5303
33.9144
33.338
32.806
32.3251
31.9036
31.5494
31.2609
31.0316
30.8751
30.7849
30.7688
30.7424
30.6979
30.6387
30.5684
30.4893
30.4033
30.3116
30.2155
30.116
30.0139
29.9097
29.804
29.6973
29.59
29.4824
29.3749
29.2677
29.1612
29.0556
28.9512
28.8485
28.7476
28.6488
28.5526
28.4592
28.3689
28.2818
28.1983
28.1185
28.0425
27.9703
27.9018
27.837
27.7756
27.7174
27.6619
27.6087
27.5573
27.507
27.4572
27.4072
27.3563
27.3037
27.2486
27.1903
27.128
27.0612
26.9892
26.9114
26.8271
26.7352
26.6296
26.5121
26.4388
26.4799
26.6203
26.8448
27.145
27.5213
27.9656
28.4707
29.0347
29.6575
30.3407
31.1032
31.9631
32.9391
34.0566
35.3193
36.699
38.1504
39.5955
40.7398
41.4979
41.9625
42.2408
201.203
200.743
198.444
193.217
185.41
176.396
167.236
158.439
150.258
142.784
135.968
129.717
123.946
118.588
113.618
109.052
104.924
101.273
98.149
95.5801
93.5814
92.1737
91.3764
91.1109
91.075
91.0478
91.0223
90.9986
90.9766
90.9561
90.9369
90.9189
90.902
90.8861
90.871
90.8567
90.843
90.83
90.8176
90.8058
90.7945
90.7837
90.7735
90.7638
90.7546
90.746
90.7378
90.7301
90.7229
90.7162
90.7099
90.7039
90.6983
90.6929
90.6878
90.6828
90.6779
90.6731
90.6683
90.6634
90.6583
90.6531
90.6478
90.6422
90.6364
90.6304
90.6242
90.6179
90.6115
90.6051
90.5989
90.5929
90.5872
90.582
90.5776
90.5739
90.5821
90.8258
91.6068
92.9996
94.9838
97.542
100.662
104.314
108.45
113.03
118.021
123.404
129.208
135.499
142.361
149.889
158.128
166.984
176.202
185.265
193.108
198.363
200.688
201.184
)
;

boundaryField
{
    inlet
    {
        type            cyclic;
    }
    outlet
    {
        type            cyclic;
    }
    topWall
    {
        blended         1;
        beta1           0.075;
        type            omegaWallFunction;
        value           nonuniform List<scalar> 
100
(
201.203
200.743
198.444
193.217
185.41
176.396
167.236
158.439
150.258
142.784
135.968
129.717
123.946
118.588
113.618
109.052
104.924
101.273
98.149
95.5801
93.5814
92.1737
91.3764
91.1109
91.075
91.0478
91.0223
90.9986
90.9766
90.9561
90.9369
90.9189
90.902
90.8861
90.871
90.8567
90.843
90.83
90.8176
90.8058
90.7945
90.7837
90.7735
90.7638
90.7546
90.746
90.7378
90.7301
90.7229
90.7162
90.7099
90.7039
90.6983
90.6929
90.6878
90.6828
90.6779
90.6731
90.6683
90.6634
90.6583
90.6531
90.6478
90.6422
90.6364
90.6304
90.6242
90.6179
90.6115
90.6051
90.5989
90.5929
90.5872
90.582
90.5776
90.5739
90.5821
90.8258
91.6068
92.9996
94.9838
97.542
100.662
104.314
108.45
113.03
118.021
123.404
129.208
135.499
142.361
149.889
158.128
166.984
176.202
185.265
193.108
198.363
200.688
201.184
)
;
    }
    bottomWall
    {
        blended         1;
        beta1           0.075;
        type            omegaWallFunction;
        value           nonuniform List<scalar> 
100
(
202.46
202.161
207.134
227.917
257.527
274.723
277.005
267.181
248.309
227.947
210.917
196.715
184.852
174.631
163.829
151.843
139.159
126.318
114.434
104.796
97.5236
92.6762
90.3802
90.3164
90.3372
90.3376
90.3381
90.3384
90.3385
90.3383
90.3377
90.3368
90.3359
90.3353
90.3353
90.3366
90.3423
90.3504
90.3597
90.3683
90.3748
90.3778
90.3772
90.373
90.366
90.3575
90.3495
90.3432
90.3388
90.3363
90.3349
90.3343
90.3341
90.3341
90.3341
90.3341
90.334
90.334
90.3342
90.3361
90.3417
90.354
90.3768
90.4146
90.4715
90.5512
90.656
90.7858
90.9386
91.1092
91.2897
91.4687
91.6309
91.7531
91.7977
91.7171
91.481
91.3265
93.5093
98.3215
105.595
115.238
127.15
139.957
152.576
164.449
175.122
185.135
196.925
210.924
227.887
248.378
267.28
277.616
275.947
260.169
232.43
211.845
205.672
203.754
)
;
    }
    defaultFaces
    {
        type            empty;
    }
}


// ************************************************************************* //
