/*--------------------------------*- C++ -*----------------------------------*\
| =========                 |                                                 |
| \\      /  F ield         | OpenFOAM: The Open Source CFD Toolbox           |
|  \\    /   O peration     | Version:  v1912                                 |
|   \\  /    A nd           | Website:  www.openfoam.com                      |
|    \\/     M anipulation  |                                                 |
\*---------------------------------------------------------------------------*/
FoamFile
{
    version     2.0;
    format      ascii;
    class       volVectorField;
    location    "10000";
    object      U;
}
// * * * * * * * * * * * * * * * * * * * * * * * * * * * * * * * * * * * * * //

dimensions      [0 1 -1 0 0 0 0];


internalField   nonuniform List<vector> 
3000
(
(0.233125 0.00249984 -3.57736e-22)
(0.208149 -0.0109185 -5.03292e-21)
(0.158835 -0.0269512 0)
(-0.000264712 -0.0078034 1.21211e-18)
(-0.104961 0.0409442 -9.69291e-18)
(-0.0965598 0.054884 -1.502e-21)
(-0.06503 0.043509 -1.85884e-17)
(-0.0448168 0.0323561 -1.16428e-20)
(-0.0332792 0.0245906 5.05114e-17)
(-0.0274584 0.0200861 -2.78597e-17)
(-0.023168 0.0170631 6.01159e-17)
(-0.0220703 0.0163322 -3.15059e-17)
(-0.0244225 0.0173184 -3.24321e-17)
(-0.0255927 0.0173821 -1.32985e-19)
(-0.0252185 0.0162789 -3.19566e-21)
(-0.0229801 0.013864 3.75277e-17)
(-0.0181832 0.0100614 3.17224e-19)
(-0.0112694 0.00554109 -3.45694e-19)
(-0.00286306 0.00121405 -2.45607e-17)
(0.00569741 -0.00181551 0)
(0.0112337 -0.00245041 2.52089e-17)
(0.0125951 -0.00157317 4.02698e-19)
(0.0113861 -0.000416718 -7.36854e-18)
(0.0102267 0.000204778 8.32342e-19)
(0.01028 5.06178e-05 4.18289e-19)
(0.0112153 -4.43034e-05 -4.14535e-19)
(0.0123824 -0.000147527 2.06393e-19)
(0.0134745 -0.000252146 -2.04914e-19)
(0.0144322 -0.000340007 0)
(0.0153515 -0.000427585 0)
(0.0161285 -0.00052556 2.03716e-19)
(0.0161945 -0.000562052 -2.04969e-19)
(0.015091 -0.000495737 2.0536e-19)
(0.0128744 -0.000365257 -1.94518e-21)
(0.0095087 -0.000190957 -2.15073e-19)
(0.00480161 2.1423e-05 -2.13936e-19)
(-0.00129412 0.00024896 2.06005e-19)
(-0.00835001 0.000453999 0)
(-0.015963 0.000622299 -8.66376e-20)
(-0.0235082 0.000743222 8.16743e-20)
(-0.0302929 0.000812059 -7.71658e-20)
(-0.0356956 0.00082586 -1.94508e-22)
(-0.0392968 0.000779078 7.3393e-20)
(-0.0409722 0.000673219 -3.71686e-20)
(-0.0409351 0.000502837 3.71704e-20)
(-0.0389215 0.000273227 0)
(-0.0350493 3.79437e-05 0)
(-0.0300126 -0.000142909 0)
(-0.0245453 -0.000242254 0)
(-0.0192111 -0.000293738 0)
(-0.0143584 -0.000373156 0)
(-0.0102688 -0.00046388 0)
(-0.00684023 -0.000436469 0)
(-0.00420455 -0.00038432 0)
(-0.00306243 -0.000389839 0)
(-0.00233971 -0.000398793 0)
(-0.00275335 -0.000412151 0)
(-0.00429291 -0.000383977 0)
(-0.0073413 -0.000284727 0)
(-0.0122814 -0.000120001 0)
(-0.0194141 0.000104491 8.23938e-20)
(-0.0288889 0.000376634 -2.00186e-21)
(-0.0407436 0.0006813 -1.92887e-19)
(-0.054921 0.0010048 2.24772e-19)
(-0.0712612 0.0013303 -9.90021e-20)
(-0.089497 0.00163966 0)
(-0.109265 0.00191784 7.44122e-20)
(-0.130135 0.00215861 -4.76114e-16)
(-0.151644 0.00236429 -4.38793e-16)
(-0.173316 0.00254314 5.60348e-20)
(-0.194643 0.00270542 1.16864e-21)
(-0.215079 0.0028557 -4.97404e-20)
(-0.234091 0.00297425 0)
(-0.250938 0.00298786 0)
(-0.263262 0.00270969 1.17722e-19)
(-0.265038 0.00133924 -1.17778e-19)
(-0.250812 -0.00443151 0)
(-0.21942 -0.0192599 -2.83122e-18)
(-0.19676 -0.0350505 0)
(-0.185597 -0.0499786 1.43258e-17)
(-0.179907 -0.0645016 0)
(-0.17685 -0.0780925 0)
(-0.17483 -0.0894754 -3.41464e-17)
(-0.172689 -0.0971267 -7.29777e-17)
(-0.166949 -0.0992439 0)
(-0.155583 -0.0949413 0)
(-0.137962 -0.0846408 0)
(-0.113987 -0.0693844 0)
(-0.0847406 -0.0508289 1.39058e-19)
(-0.0520126 -0.0303418 -1.57793e-19)
(-0.0116619 -0.00428856 1.90744e-16)
(0.0325607 0.0247083 0)
(0.083218 0.0577344 3.27619e-20)
(0.15266 0.0989343 -3.75156e-19)
(0.24806 0.144972 3.55474e-17)
(0.371554 0.181741 4.83987e-19)
(0.485515 0.172826 -1.3507e-21)
(0.515241 0.110295 1.36533e-21)
(0.441553 0.0462642 0)
(0.316921 0.0130351 0)
(0.542341 0.0153739 1.56921e-22)
(0.510397 -0.00939495 -2.7541e-20)
(0.427065 -0.0420027 1.71754e-23)
(0.258829 -0.0458114 0)
(-0.0170094 0.0353349 7.46493e-18)
(-0.155182 0.107815 -3.04367e-21)
(-0.130286 0.0959213 1.68016e-20)
(-0.100963 0.077815 2.01429e-17)
(-0.0807278 0.0635607 -2.46933e-17)
(-0.0692422 0.0537093 9.56662e-20)
(-0.0611615 0.0471537 -3.1274e-17)
(-0.0568814 0.0453881 5.51304e-20)
(-0.058575 0.046547 1.33493e-19)
(-0.0590757 0.0455729 -1.35694e-19)
(-0.0571556 0.0417739 -3.62602e-17)
(-0.0523783 0.0347068 -5.94679e-19)
(-0.0441872 0.0250638 4.07374e-17)
(-0.0331647 0.0143794 -4.48693e-17)
(-0.0203006 0.00463418 2.60034e-17)
(-0.00568592 -0.00253601 4.92662e-19)
(0.00864422 -0.00484944 -3.32572e-17)
(0.0176464 -0.00345056 -1.71918e-17)
(0.0199639 -0.00107059 8.26466e-18)
(0.0192181 0.000234431 -5.21327e-19)
(0.0187644 -0.000251872 0)
(0.0196617 -0.00060269 0)
(0.020831 -0.000865719 5.23706e-19)
(0.0213674 -0.00100209 -5.29881e-19)
(0.0209542 -0.000968698 0)
(0.0196649 -0.000771746 0)
(0.0171315 -0.0004164 -6.09235e-19)
(0.0116072 0.000191317 2.94441e-21)
(0.00198093 0.00105734 5.36215e-19)
(-0.0102219 0.00197415 -2.14776e-19)
(-0.0240824 0.00282064 1.79694e-19)
(-0.0386936 0.00348902 0)
(-0.0532943 0.00391494 0)
(-0.0671791 0.00407712 1.18737e-19)
(-0.0797439 0.00398895 -2.20077e-19)
(-0.0904118 0.0036823 2.07795e-19)
(-0.0987016 0.0031947 -2.01047e-19)
(-0.104296 0.00255556 1.49392e-19)
(-0.107081 0.0017734 3.65729e-22)
(-0.10728 0.00086452 -5.13558e-20)
(-0.104578 -0.00013458 0)
(-0.099103 -0.00111538 0)
(-0.0916994 -0.00193825 0)
(-0.0831601 -0.0024905 1.56039e-20)
(-0.0742924 -0.00273319 -8.3337e-21)
(-0.0657903 -0.00275742 -9.18256e-21)
(-0.0583791 -0.00272906 1.0034e-20)
(-0.0526688 -0.00262423 -1.07897e-20)
(-0.0484165 -0.00210224 0)
(-0.0465914 -0.00121924 0)
(-0.0518547 -0.000348489 0)
(-0.0606634 0.00045936 0)
(-0.0733454 0.00137318 0)
(-0.0898955 0.00238324 0)
(-0.109705 0.00346292 -9.46548e-20)
(-0.132083 0.00455933 8.19957e-20)
(-0.156369 0.00562698 0)
(-0.181977 0.00662743 0)
(-0.208401 0.00753136 -5.12905e-20)
(-0.235205 0.00831528 9.1567e-20)
(-0.261993 0.00895479 -1.0767e-21)
(-0.288376 0.00942531 -8.63278e-22)
(-0.313962 0.0097048 -6.69691e-20)
(-0.338344 0.00977631 -3.04377e-20)
(-0.361108 0.00962518 5.84592e-20)
(-0.381826 0.00923233 0)
(-0.400033 0.00856032 0)
(-0.415215 0.00753498 -5.60755e-20)
(-0.426813 0.00600996 1.13577e-19)
(-0.434057 0.00373733 -5.82471e-20)
(-0.435123 0.000288408 0)
(-0.426147 -0.00583256 -8.33331e-20)
(-0.403734 -0.019964 8.16297e-20)
(-0.378393 -0.0499578 0)
(-0.359165 -0.0833193 0)
(-0.343738 -0.11422 0)
(-0.328015 -0.141723 -1.45351e-19)
(-0.310496 -0.164489 1.52389e-19)
(-0.290645 -0.180708 -1.82034e-19)
(-0.268001 -0.187838 4.13976e-20)
(-0.241442 -0.184708 -2.98355e-17)
(-0.210426 -0.171403 -2.87299e-19)
(-0.174595 -0.149129 3.19962e-19)
(-0.133732 -0.119986 0)
(-0.0877063 -0.0864294 6.76168e-17)
(-0.0354958 -0.048971 0)
(0.0317537 0.00370463 1.24182e-19)
(0.0890034 0.0517167 0)
(0.1606 0.108358 0)
(0.251468 0.17111 -3.62019e-17)
(0.367044 0.232071 -2.44793e-17)
(0.507503 0.27187 6.4783e-19)
(0.647618 0.254063 2.86908e-18)
(0.716263 0.1663 1.88142e-19)
(0.680343 0.0764204 0)
(0.595987 0.0315518 0)
(0.682365 0.0168956 0)
(0.65914 -0.00938694 1.89632e-20)
(0.590376 -0.048406 1.44096e-19)
(0.438637 -0.0673255 0)
(0.219657 -0.0280496 0)
(-0.0787387 0.0807351 -1.06964e-17)
(-0.157682 0.114246 1.55924e-17)
(-0.136029 0.0993893 -1.43513e-19)
(-0.114967 0.0862622 0)
(-0.10164 0.0759248 2.14902e-17)
(-0.0918462 0.0683833 2.38849e-17)
(-0.0846501 0.0661581 2.67569e-17)
(-0.0839386 0.0660245 0)
(-0.0831071 0.0633055 -2.82961e-17)
(-0.0800434 0.057305 2.91814e-17)
(-0.0745882 0.0477246 0)
(-0.0662937 0.0355751 -3.00222e-17)
(-0.0556379 0.0224072 7.87705e-20)
(-0.0433504 0.0102188 -3.62128e-17)
(-0.0299564 0.00119955 2.08983e-17)
(-0.0161136 -0.00321106 5.61221e-17)
(-0.000438363 -0.00333197 0)
(0.00902665 -0.00115183 -9.29669e-18)
(0.0101638 0.000184799 -1.30857e-18)
(0.00843302 -0.000722779 1.36301e-18)
(0.00773316 -0.00112797 -1.41826e-18)
(0.00604578 -0.00120007 7.65089e-19)
(0.00170232 -0.000677544 -1.39709e-18)
(-0.00501971 0.000446593 -1.02807e-22)
(-0.0141315 0.0019558 4.22085e-19)
(-0.0255432 0.00358845 0)
(-0.0392355 0.00515157 -2.7476e-19)
(-0.0546392 0.00651114 2.33086e-19)
(-0.0707844 0.00756793 0)
(-0.0869459 0.00827494 0)
(-0.102525 0.0086088 0)
(-0.117025 0.00856829 0)
(-0.130026 0.00816759 0)
(-0.141167 0.00743467 -6.66085e-20)
(-0.150128 0.00640643 6.54657e-20)
(-0.156677 0.00512052 -6.46331e-20)
(-0.160707 0.00361063 6.52864e-20)
(-0.162249 0.00190776 0)
(-0.161576 6.09798e-05 3.40868e-20)
(-0.15832 -0.00181299 4.46422e-22)
(-0.153195 -0.00355255 4.73677e-22)
(-0.146811 -0.00496707 -3.61363e-20)
(-0.139907 -0.00585312 0)
(-0.1332 -0.00605675 0)
(-0.127507 -0.00555707 0)
(-0.123962 -0.00446493 0)
(-0.12421 -0.00284001 0)
(-0.130221 -0.00067179 0)
(-0.140125 0.00181579 0)
(-0.152078 0.00421752 3.63513e-20)
(-0.167811 0.00648186 -2.39616e-22)
(-0.186613 0.00860948 -2.89771e-20)
(-0.207951 0.0105297 0)
(-0.231115 0.0122117 0)
(-0.255372 0.0136476 -4.02696e-20)
(-0.280052 0.0148414 3.70736e-20)
(-0.304581 0.0157999 -3.26627e-20)
(-0.328489 0.016528 3.05852e-20)
(-0.351391 0.0170257 0)
(-0.372972 0.0172836 -5.05152e-20)
(-0.392946 0.0172856 4.83905e-20)
(-0.411048 0.0170147 0)
(-0.427017 0.0164586 4.28688e-20)
(-0.440597 0.0156109 -1.66475e-22)
(-0.451528 0.0144641 2.96062e-22)
(-0.459534 0.0129893 8.49235e-22)
(-0.46432 0.0111067 -8.57866e-20)
(-0.465587 0.00866126 9.07206e-20)
(-0.462911 0.00545785 3.60417e-21)
(-0.455216 0.0012328 -1.69302e-19)
(-0.440845 -0.00541874 1.16322e-19)
(-0.420278 -0.0198492 0)
(-0.400737 -0.0492292 -1.07015e-18)
(-0.382892 -0.0838642 -2.81572e-18)
(-0.364416 -0.116821 -6.52151e-18)
(-0.343511 -0.145744 0)
(-0.319659 -0.168692 7.96049e-18)
(-0.292777 -0.183701 1.83227e-17)
(-0.262559 -0.188541 2.13071e-17)
(-0.228601 -0.182622 2.53639e-17)
(-0.190714 -0.166592 -2.28568e-19)
(-0.148296 -0.142092 0)
(-0.101209 -0.111468 3.79385e-19)
(-0.0482263 -0.0761584 -1.24607e-16)
(0.0151679 -0.0314976 6.78166e-17)
(0.0725446 0.0149431 -1.14142e-16)
(0.134909 0.0661869 0)
(0.211531 0.122766 -3.36814e-17)
(0.306067 0.18083 2.43606e-17)
(0.421507 0.230959 8.91451e-21)
(0.554485 0.255189 1.03285e-17)
(0.682448 0.228688 -2.2244e-18)
(0.758417 0.150894 -2.79586e-19)
(0.755893 0.074332 -7.85857e-20)
(0.712134 0.0336294 0)
(0.739095 0.0228175 0)
(0.724238 -0.00237324 5.154e-20)
(0.678109 -0.0400469 -1.07648e-19)
(0.562547 -0.0692337 -5.3556e-19)
(0.384366 -0.0557425 2.70898e-21)
(0.16835 0.00323784 5.1221e-18)
(-0.121625 0.102369 -1.39189e-17)
(-0.153544 0.108426 -1.39512e-17)
(-0.137268 0.0978384 0)
(-0.124632 0.0894145 -1.68505e-17)
(-0.114604 0.08159 -3.73271e-17)
(-0.105284 0.0797158 0)
(-0.102385 0.0790404 -2.16678e-17)
(-0.101063 0.0754825 2.27961e-17)
(-0.0982835 0.0687212 3.62097e-19)
(-0.0942132 0.0584383 -3.49986e-19)
(-0.0880474 0.0455273 0)
(-0.0800465 0.031334 2.32798e-17)
(-0.0706278 0.0176727 1.21595e-17)
(-0.0601501 0.0067396 -1.3211e-17)
(-0.0487174 5.10238e-05 -1.54681e-17)
(-0.036017 -0.00209924 9.53683e-18)
(-0.0240793 -0.00101942 8.77646e-19)
(-0.0239543 0.00024296 4.47044e-19)
(-0.0301245 -0.000196979 0)
(-0.0357373 0.000376944 0)
(-0.0429799 0.00163067 0)
(-0.0519266 0.00345656 0)
(-0.0625063 0.00564012 0)
(-0.0745297 0.00790823 0)
(-0.0877903 0.0100064 0)
(-0.102013 0.0117587 0)
(-0.116744 0.0130622 0)
(-0.131473 0.013874 0)
(-0.145768 0.0141949 0)
(-0.15927 0.0140407 0)
(-0.17167 0.0134336 0)
(-0.182719 0.0123957 0)
(-0.192183 0.0109523 0)
(-0.199862 0.00913729 0)
(-0.205608 0.00699445 0)
(-0.209361 0.00458361 0)
(-0.211156 0.00198797 0)
(-0.21118 -0.000686186 0)
(-0.209624 -0.00324684 0)
(-0.207052 -0.00546763 0)
(-0.204115 -0.00708165 0)
(-0.201504 -0.00779123 1.24075e-20)
(-0.199943 -0.00736231 -1.25702e-20)
(-0.20015 -0.00577505 0)
(-0.202806 -0.00328012 0)
(-0.208389 -0.00022353 -1.30406e-20)
(-0.215959 0.00313659 -1.2348e-20)
(-0.225536 0.0066813 2.29499e-20)
(-0.237772 0.0102618 0)
(-0.252473 0.0136348 0)
(-0.269155 0.0166359 0)
(-0.287229 0.0191536 0)
(-0.306056 0.0211425 0)
(-0.325004 0.0226127 0)
(-0.343517 0.0236058 0)
(-0.361145 0.0241725 0)
(-0.377541 0.0243581 4.46651e-20)
(-0.392454 0.0241943 -4.32916e-20)
(-0.405705 0.023694 0)
(-0.417151 0.0228519 0)
(-0.426672 0.0216519 0)
(-0.43416 0.0200753 0)
(-0.439509 0.0181074 0)
(-0.442619 0.0157296 0)
(-0.443378 0.0128842 0)
(-0.44166 0.00944917 0)
(-0.437313 0.00526477 0)
(-0.43005 0.000249147 0)
(-0.419492 -0.00566293 0)
(-0.405459 -0.0137284 0)
(-0.38789 -0.0285073 -9.4576e-20)
(-0.371599 -0.0548245 1.82601e-19)
(-0.354137 -0.0864092 2.69973e-18)
(-0.334319 -0.117075 1.09892e-17)
(-0.311577 -0.143797 0)
(-0.285656 -0.164276 -7.87326e-20)
(-0.256458 -0.17651 -1.64743e-17)
(-0.223552 -0.17868 0)
(-0.186874 -0.170491 -3.80194e-19)
(-0.146246 -0.152824 4.25443e-19)
(-0.10072 -0.127542 2.85754e-19)
(-0.0505935 -0.0969906 -4.57676e-17)
(0.00726325 -0.058983 5.10978e-17)
(0.0622853 -0.0182852 3.49643e-20)
(0.117294 0.0260161 3.80059e-17)
(0.181659 0.0755582 3.06403e-17)
(0.259736 0.12804 2.40186e-17)
(0.353866 0.178834 -1.79112e-17)
(0.46447 0.218522 1.19877e-17)
(0.585307 0.232469 4.48752e-21)
(0.695765 0.20607 -2.29707e-21)
(0.763941 0.144325 -2.2056e-19)
(0.776653 0.0808132 6.65409e-20)
(0.756259 0.0420382 -5.42741e-22)
(0.765452 0.0249307 0)
(0.755013 0.00280486 -4.34652e-20)
(0.72554 -0.0278417 7.5201e-22)
(0.64537 -0.0584105 4.11205e-19)
(0.509369 -0.062806 0)
(0.335964 -0.0322074 -2.64934e-18)
(0.145671 0.0223727 -6.00518e-18)
(-0.142829 0.104562 2.62606e-20)
(-0.149156 0.101696 0)
(-0.140836 0.0973801 1.29414e-19)
(-0.132185 0.0897161 1.47749e-17)
(-0.121371 0.0886254 -1.75001e-17)
(-0.117329 0.089103 1.78604e-17)
(-0.116608 0.0858966 0)
(-0.115115 0.0795719 2.86846e-19)
(-0.113496 0.0695109 -5.48728e-19)
(-0.110459 0.0565148 2.64728e-19)
(-0.106093 0.041809 -7.89866e-18)
(-0.100702 0.0269876 7.9653e-18)
(-0.0943994 0.0142463 -5.49502e-19)
(-0.0872925 0.00549599 5.9248e-19)
(-0.0799245 0.00166343 -1.15116e-17)
(-0.0750627 0.00164966 8.06241e-19)
(-0.0788735 0.00260977 -9.42473e-20)
(-0.0863052 0.0030591 -3.48568e-19)
(-0.0933342 0.0043366 -1.05321e-21)
(-0.101333 0.0063488 2.88816e-19)
(-0.110333 0.00887266 0)
(-0.120357 0.0116228 2.383e-19)
(-0.13129 0.0142935 -2.17632e-19)
(-0.142954 0.0166179 0)
(-0.155119 0.0184192 0)
(-0.167492 0.0196141 0)
(-0.179774 0.0201899 0)
(-0.191696 0.020171 -1.53978e-19)
(-0.203021 0.0195859 2.96591e-19)
(-0.213543 0.018457 -2.0416e-21)
(-0.223059 0.0168005 -2.09267e-19)
(-0.231368 0.0146415 6.87256e-20)
(-0.23828 0.0120299 -6.74765e-20)
(-0.243646 0.00904895 6.80135e-20)
(-0.247384 0.0058177 0)
(-0.24951 0.00248692 -7.06612e-20)
(-0.250172 -0.000773137 6.92931e-20)
(-0.249982 -0.0037091 0)
(-0.249371 -0.00606737 -3.51592e-20)
(-0.248809 -0.0075695 3.49756e-20)
(-0.248765 -0.00793221 0)
(-0.249649 -0.00697622 0)
(-0.251752 -0.00475571 0)
(-0.255181 -0.00155515 -9.43122e-21)
(-0.259808 0.00231467 9.13593e-21)
(-0.265704 0.00666482 0)
(-0.273411 0.0113111 0)
(-0.282771 0.0158987 0)
(-0.293533 0.0200919 0)
(-0.30532 0.02366 0)
(-0.317674 0.0264675 0)
(-0.330124 0.0284743 0)
(-0.342223 0.02972 4.49939e-20)
(-0.353597 0.0302927 -1.16803e-21)
(-0.363965 0.0302959 -1.18638e-21)
(-0.373136 0.0298253 -3.9617e-20)
(-0.381003 0.0289552 0)
(-0.387513 0.0277297 0)
(-0.39264 0.0261618 0)
(-0.396364 0.0242395 -6.72984e-20)
(-0.398655 0.0219421 1.34197e-19)
(-0.399472 0.0192524 -4.19244e-22)
(-0.398769 0.016136 -6.78038e-20)
(-0.396479 0.0124963 0)
(-0.39248 0.00818115 7.51474e-20)
(-0.386551 0.00307267 -7.80948e-20)
(-0.378325 -0.00282436 0)
(-0.368739 -0.00971321 9.58282e-20)
(-0.356407 -0.0191155 -9.42668e-20)
(-0.342169 -0.0343088 1.93762e-19)
(-0.328928 -0.057794 7.59308e-19)
(-0.312452 -0.0860991 -2.87088e-19)
(-0.292212 -0.114135 -4.77907e-18)
(-0.268408 -0.138428 0)
(-0.241065 -0.156319 -6.5296e-18)
(-0.210065 -0.165887 0)
(-0.174895 -0.165872 0)
(-0.135929 -0.156349 0)
(-0.092737 -0.13833 -4.4807e-19)
(-0.0440321 -0.112874 5.26128e-19)
(0.0089134 -0.0811956 3.90545e-17)
(0.0605412 -0.0457938 -2.80637e-19)
(0.111525 -0.00741376 -3.03845e-17)
(0.167473 0.0357535 2.64621e-17)
(0.233038 0.0824133 -5.17363e-19)
(0.31133 0.129739 0)
(0.403332 0.172614 -1.26398e-17)
(0.507243 0.202378 -4.45474e-19)
(0.61517 0.208138 8.96987e-21)
(0.709295 0.18271 -9.30413e-21)
(0.767813 0.13331 2.72057e-19)
(0.785258 0.0811864 7.13519e-22)
(0.776358 0.0455273 1.78303e-21)
(0.783599 0.0272865 8.72645e-22)
(0.775167 0.00787225 -2.8227e-21)
(0.75502 -0.0159707 -3.03408e-22)
(0.701266 -0.0427843 1.71374e-21)
(0.602853 -0.0566228 0)
(0.469058 -0.0465226 1.8148e-18)
(0.314265 -0.0151022 2.84918e-18)
(0.15157 0.0257976 0)
(-0.120479 0.0934473 0)
(-0.152816 0.0932854 1.26049e-17)
(-0.147659 0.0914714 1.8443e-19)
(-0.135662 0.0931958 1.3439e-17)
(-0.130086 0.0972717 0)
(-0.130497 0.0953356 0)
(-0.1305 0.0903155 1.38506e-17)
(-0.13152 0.0808873 4.26798e-19)
(-0.1318 0.0681255 -4.15931e-19)
(-0.131287 0.0533044 6.80987e-18)
(-0.13025 0.0377182 -6.27585e-18)
(-0.128561 0.0235822 0)
(-0.126423 0.0131251 0)
(-0.124661 0.00749331 3.43792e-18)
(-0.124906 0.00577976 0)
(-0.128849 0.00588667 0)
(-0.135135 0.00681412 0)
(-0.141007 0.00859869 3.93265e-19)
(-0.147484 0.0111788 -3.68993e-19)
(-0.154637 0.0142457 3.47384e-19)
(-0.162514 0.0174418 -6.51601e-19)
(-0.171052 0.0204201 3.06662e-19)
(-0.18012 0.0229072 0)
(-0.189541 0.0247402 0)
(-0.199118 0.0258576 -1.29874e-19)
(-0.208655 0.0262617 1.25623e-19)
(-0.217974 0.0259772 1.19376e-19)
(-0.226908 0.0250208 -1.75005e-21)
(-0.235306 0.0233988 -1.14086e-19)
(-0.242978 0.0211198 0)
(-0.249726 0.0182235 1.08766e-19)
(-0.255353 0.0148027 -2.17956e-19)
(-0.259701 0.0110082 1.64375e-19)
(-0.262687 0.00703799 -5.55089e-20)
(-0.264334 0.00311527 0)
(-0.264806 -0.000536907 -5.68902e-20)
(-0.264737 -0.00364262 5.60424e-20)
(-0.264465 -0.00596961 -2.86925e-20)
(-0.264298 -0.00728378 -5.14996e-22)
(-0.26453 -0.00737009 4.38373e-20)
(-0.2654 -0.00610978 -1.48544e-20)
(-0.267019 -0.00355374 2.34447e-25)
(-0.269274 8.97068e-05 -7.75669e-21)
(-0.272127 0.00458126 7.46715e-21)
(-0.276065 0.00969977 0)
(-0.280966 0.0150799 -2.74351e-20)
(-0.286682 0.0202834 7.84542e-20)
(-0.293017 0.0249276 -4.99596e-22)
(-0.29973 0.0287433 -4.78405e-20)
(-0.306545 0.0315841 0)
(-0.313182 0.0334226 0)
(-0.319389 0.0343287 -8.17486e-20)
(-0.324966 0.0344328 8.05886e-20)
(-0.329779 0.0338824 -7.52509e-20)
(-0.333765 0.0328109 7.48344e-20)
(-0.33691 0.0313195 0)
(-0.339234 0.0294666 0)
(-0.340757 0.0272644 0)
(-0.341471 0.0246898 0)
(-0.341319 0.021712 -6.54864e-20)
(-0.340223 0.0183025 1.9864e-19)
(-0.338104 0.0143982 -1.3497e-19)
(-0.334849 0.00987409 1.41284e-19)
(-0.330236 0.00462839 4.40668e-21)
(-0.323881 -0.00127359 -3.18863e-19)
(-0.316674 -0.00771648 1.61818e-19)
(-0.308044 -0.0152808 0)
(-0.297752 -0.0254126 0)
(-0.286708 -0.0402964 0)
(-0.27622 -0.0611663 6.41115e-19)
(-0.260892 -0.0862996 5.12223e-19)
(-0.240446 -0.111449 2.58015e-20)
(-0.215615 -0.132912 -3.18372e-19)
(-0.186911 -0.147847 -6.20749e-18)
(-0.154106 -0.154633 7.45303e-18)
(-0.116543 -0.152615 5.9359e-19)
(-0.0756888 -0.14232 -6.68847e-19)
(-0.0300415 -0.124398 0)
(0.021763 -0.0974598 -4.88086e-19)
(0.0681595 -0.0681857 2.74369e-17)
(0.116204 -0.0347529 -2.42116e-17)
(0.167319 0.00280867 2.1218e-17)
(0.224099 0.0439183 -1.86728e-17)
(0.290075 0.0867448 -3.0773e-17)
(0.367339 0.128024 -4.60062e-20)
(0.455492 0.162651 9.77706e-18)
(0.551043 0.183439 -7.06076e-18)
(0.645651 0.183288 -5.38015e-21)
(0.724909 0.160173 -1.50905e-18)
(0.774597 0.121454 5.0778e-19)
(0.793236 0.0794807 0)
(0.790715 0.0478312 -1.13186e-21)
(0.801028 0.0295964 -4.20616e-21)
(0.794002 0.0123482 7.07671e-20)
(0.778697 -0.00626974 4.04202e-21)
(0.741884 -0.0275749 -1.44666e-21)
(0.672757 -0.0439652 -1.93067e-21)
(0.573685 -0.0462807 0)
(0.452591 -0.0329663 1.93167e-18)
(0.320905 -0.00859087 -1.041e-20)
(0.173007 0.0255519 -8.10625e-20)
(-0.0183779 0.0630532 1.63202e-19)
(-0.149903 0.0811031 0)
(-0.142294 0.0918725 0)
(-0.136114 0.104184 0)
(-0.139879 0.102386 3.59959e-19)
(-0.141643 0.0989861 -1.17611e-17)
(-0.144991 0.0907569 0)
(-0.14801 0.0785193 -5.52512e-18)
(-0.150599 0.0638711 -3.21744e-19)
(-0.153015 0.0477515 -9.3547e-21)
(-0.154587 0.0323821 5.88991e-19)
(-0.155422 0.0202968 0)
(-0.156377 0.0128926 0)
(-0.158202 0.00955056 6.81168e-19)
(-0.160488 0.00887298 -6.17459e-19)
(-0.164226 0.0101004 -3.02005e-19)
(-0.167662 0.0122615 2.90942e-19)
(-0.171546 0.0152388 -2.81646e-19)
(-0.175975 0.0186717 2.69453e-19)
(-0.181005 0.0221579 -2.5819e-19)
(-0.18659 0.0253309 2.47587e-19)
(-0.192614 0.0279273 2.36258e-19)
(-0.198932 0.0298095 -1.91886e-21)
(-0.205403 0.0309337 -2.41206e-21)
(-0.211907 0.0312991 -4.24337e-19)
(-0.218345 0.0309048 3.18499e-21)
(-0.224624 0.0297312 3.42438e-21)
(-0.230644 0.0277523 1.98582e-19)
(-0.236227 0.0249614 0)
(-0.241159 0.0214144 0)
(-0.245215 0.0172539 0)
(-0.248204 0.0127079 0)
(-0.250024 0.00806153 9.89411e-20)
(-0.250696 0.00361078 -1.01101e-19)
(-0.250397 -0.000375306 0)
(-0.24971 -0.00359598 0)
(-0.248861 -0.00586345 5.20569e-20)
(-0.248062 -0.00701736 -5.19435e-20)
(-0.247522 -0.00692323 0)
(-0.247418 -0.00549732 0)
(-0.247804 -0.00274169 4.36684e-25)
(-0.248483 0.00121614 -4.34678e-25)
(-0.249637 0.00613887 0)
(-0.251314 0.0116806 0)
(-0.253374 0.0174048 -5.20097e-20)
(-0.2557 0.0228587 5.02855e-20)
(-0.258187 0.0276486 0)
(-0.260723 0.0314961 9.18897e-20)
(-0.26319 0.0342553 -9.0176e-20)
(-0.265466 0.0359092 8.49643e-20)
(-0.267438 0.0365498 -8.4293e-20)
(-0.269027 0.0363377 0)
(-0.270192 0.0354454 0)
(-0.270938 0.0340215 -7.46449e-20)
(-0.271295 0.0321749 7.5118e-20)
(-0.271303 0.0299674 0)
(-0.270972 0.0274142 0)
(-0.270249 0.024497 0)
(-0.269015 0.0211782 1.38405e-19)
(-0.267132 0.0173819 -1.39693e-21)
(-0.264496 0.0129579 -1.4421e-19)
(-0.260942 0.00772349 0)
(-0.256083 0.00164821 1.63305e-19)
(-0.249634 -0.00495763 -3.3483e-19)
(-0.243436 -0.0120719 1.68694e-19)
(-0.236131 -0.0204527 0)
(-0.228083 -0.0311216 -1.98524e-19)
(-0.220074 -0.0453645 -2.01382e-19)
(-0.212017 -0.063829 -4.85089e-19)
(-0.197759 -0.0859659 1.99482e-18)
(-0.177107 -0.108103 -4.58056e-18)
(-0.15109 -0.126577 -5.34276e-18)
(-0.121218 -0.138681 6.38508e-18)
(-0.086777 -0.143168 -1.55695e-17)
(-0.0465711 -0.139457 0)
(-0.00440948 -0.128464 0)
(0.0434139 -0.108798 0)
(0.0871278 -0.0851889 6.25519e-19)
(0.132127 -0.0565249 -5.83953e-19)
(0.179666 -0.0239721 1.62542e-17)
(0.230832 0.0118989 -2.94488e-17)
(0.287725 0.0500039 -1.29026e-17)
(0.352978 0.0880792 1.13179e-17)
(0.427628 0.122693 8.80446e-18)
(0.510069 0.149281 2.93071e-20)
(0.595838 0.162563 4.45808e-21)
(0.677189 0.158747 -1.02735e-20)
(0.743271 0.138863 1.27018e-18)
(0.785269 0.109128 -4.20323e-19)
(0.803705 0.0763145 8.1225e-20)
(0.80523 0.0491603 0)
(0.820097 0.0315694 3.53232e-21)
(0.814625 0.0163479 -5.95827e-20)
(0.80233 0.0014472 0)
(0.77563 -0.014819 0)
(0.727002 -0.0298268 -2.01162e-21)
(0.655661 -0.0377356 2.08984e-21)
(0.564973 -0.0358375 -1.42045e-18)
(0.461724 -0.0247669 -4.34811e-20)
(0.349453 -0.0074387 7.712e-20)
(0.220496 0.0174736 -1.1764e-19)
(0.125457 0.0244775 1.2157e-19)
(-0.10132 0.0862453 3.87287e-19)
(-0.13465 0.0901356 9.26872e-18)
(-0.144052 0.0982658 0)
(-0.141457 0.10503 5.83149e-19)
(-0.146817 0.099265 6.33794e-21)
(-0.153852 0.0851683 3.97411e-18)
(-0.15878 0.0702316 4.11486e-18)
(-0.163025 0.0540697 0)
(-0.165736 0.0376915 0)
(-0.166877 0.024036 0)
(-0.167425 0.0155125 2.06193e-18)
(-0.167999 0.01159 0)
(-0.167935 0.0106028 0)
(-0.168186 0.0118759 0)
(-0.168428 0.0142327 0)
(-0.169098 0.0174795 -4.95773e-19)
(-0.170331 0.0212232 4.81953e-19)
(-0.172178 0.0250353 4.6817e-19)
(-0.174579 0.0285329 -4.5512e-19)
(-0.177401 0.0314532 0)
(-0.180512 0.0336673 2.12279e-19)
(-0.183829 0.0351136 -2.70843e-21)
(-0.187325 0.0357369 -2.03604e-19)
(-0.191005 0.0354628 0)
(-0.194871 0.0342032 -1.91716e-19)
(-0.198858 0.0318902 3.81481e-19)
(-0.20277 0.0285133 -1.90781e-19)
(-0.206316 0.024172 0)
(-0.209156 0.0190945 0)
(-0.210987 0.0136226 9.57028e-20)
(-0.211641 0.00814875 -9.82763e-20)
(-0.211135 0.00305063 0)
(-0.209793 -0.00134277 0)
(-0.208086 -0.00470902 1.03873e-19)
(-0.20616 -0.00693558 -1.56618e-19)
(-0.204195 -0.0079474 5.32137e-20)
(-0.202382 -0.00768675 -2.81742e-20)
(-0.200884 -0.00609525 2.86059e-20)
(-0.199778 -0.00313403 -4.62345e-25)
(-0.198913 0.00112155 4.62722e-25)
(-0.198095 0.00634245 -3.0022e-20)
(-0.197505 0.0120752 2.91472e-20)
(-0.196976 0.0178929 0)
(-0.19644 0.0233737 0)
(-0.195868 0.0281459 0)
(-0.19525 0.0319416 0)
(-0.194575 0.0346157 0)
(-0.193804 0.036145 0)
(-0.192883 0.0366267 1.8668e-19)
(-0.191779 0.036241 -1.87987e-19)
(-0.190494 0.0351648 -1.78027e-19)
(-0.189054 0.03354 1.80406e-19)
(-0.187497 0.031471 0)
(-0.185856 0.0290285 0)
(-0.184116 0.026251 0)
(-0.182192 0.0231352 -1.67044e-19)
(-0.179942 0.0195904 3.40017e-19)
(-0.17727 0.0154011 -2.15559e-21)
(-0.174145 0.0102934 1.78651e-19)
(-0.170334 0.00413282 -7.61602e-19)
(-0.165077 -0.00279976 8.07111e-19)
(-0.160826 -0.0098829 -3.99639e-19)
(-0.15598 -0.0174012 0)
(-0.150589 -0.0261267 0)
(-0.145003 -0.0367167 4.64013e-19)
(-0.140028 -0.0497905 -4.70976e-19)
(-0.133853 -0.0657784 -5.29245e-19)
(-0.120266 -0.0849444 4.88573e-19)
(-0.0993131 -0.104034 6.93201e-20)
(-0.0718694 -0.119598 6.14154e-18)
(-0.0414408 -0.129186 -9.87495e-19)
(-0.00588737 -0.132034 8.76338e-18)
(0.0364794 -0.126104 2.17335e-18)
(0.0762484 -0.114064 6.68377e-18)
(0.117999 -0.0960362 4.45672e-19)
(0.160914 -0.0727115 -3.88117e-19)
(0.205238 -0.0450399 -2.37447e-17)
(0.252028 -0.0140787 -3.4789e-19)
(0.302532 0.0192365 1.03963e-17)
(0.35843 0.0534249 9.80077e-18)
(0.421451 0.0860139 -1.27957e-19)
(0.491651 0.113779 -6.84227e-18)
(0.566599 0.133111 0)
(0.641626 0.140688 0)
(0.710297 0.135195 0)
(0.764977 0.119007 -1.17988e-18)
(0.800364 0.0967279 0)
(0.817771 0.0718092 -6.95998e-20)
(0.82186 0.0493111 0)
(0.841767 0.032987 2.16636e-21)
(0.838011 0.0198523 -2.07887e-21)
(0.828196 0.00767806 -2.59479e-19)
(0.807717 -0.00478791 -4.55633e-19)
(0.77245 -0.0170582 -1.7808e-21)
(0.721346 -0.0261624 1.79607e-21)
(0.65543 -0.0299044 0)
(0.577748 -0.0275117 0)
(0.492145 -0.020515 -1.67355e-18)
(0.396093 -0.00963073 0)
(0.306635 0.00299088 0)
(0.195495 0.0294438 0)
(0.111599 0.0356958 -7.14043e-18)
(-0.0354124 0.0725677 7.03928e-19)
(-0.114144 0.0893736 -5.53235e-19)
(-0.141913 0.0817575 4.65964e-19)
(-0.149748 0.0774475 -4.75921e-19)
(-0.149682 0.071007 -8.01031e-18)
(-0.15376 0.0563302 1.36022e-18)
(-0.157667 0.0365267 -8.61278e-19)
(-0.158018 0.0197218 0)
(-0.156097 0.0111882 -1.89278e-18)
(-0.153719 0.00875438 0)
(-0.150117 0.00854845 0)
(-0.14618 0.0100887 0)
(-0.142592 0.0128514 0)
(-0.139528 0.0166237 0)
(-0.137191 0.0209723 0)
(-0.135644 0.0254327 0)
(-0.134785 0.029561 0)
(-0.134422 0.0330468 0)
(-0.134429 0.035748 0)
(-0.134824 0.0375451 0)
(-0.13573 0.0382879 0)
(-0.137304 0.037822 0)
(-0.139666 0.0360405 0)
(-0.142744 0.0329309 0)
(-0.146236 0.0286028 0)
(-0.149616 0.0232982 0)
(-0.152233 0.0173828 0)
(-0.153506 0.0112999 0)
(-0.153123 0.00548433 0)
(-0.151135 0.000315477 0)
(-0.148513 -0.00389685 0)
(-0.145345 -0.00693446 0)
(-0.141869 -0.00871677 -1.28792e-19)
(-0.138321 -0.0092235 1.30443e-19)
(-0.134837 -0.0084842 -7.03786e-20)
(-0.131605 -0.00652409 7.24372e-20)
(-0.128821 -0.00335633 0)
(-0.126595 0.000917734 0)
(-0.123508 0.00597692 0)
(-0.12057 0.0114834 7.911e-20)
(-0.117572 0.0170032 -7.75338e-20)
(-0.114481 0.022186 0)
(-0.111341 0.0266904 0)
(-0.108225 0.0302571 0)
(-0.105192 0.0327382 0)
(-0.102197 0.0340914 2.77364e-19)
(-0.0991193 0.0344287 -8.77766e-21)
(-0.0959069 0.0339514 -5.54903e-19)
(-0.0925776 0.0328295 2.81986e-19)
(-0.0891567 0.0311846 0)
(-0.0856645 0.0291082 0)
(-0.0821188 0.0266794 0)
(-0.0785331 0.0239617 -5.7011e-19)
(-0.0749304 0.020933 6.02456e-19)
(-0.071402 0.0173611 -6.1045e-19)
(-0.0681599 0.0127983 6.57176e-19)
(-0.0653172 0.00693366 0)
(-0.0619695 -0.000120437 -8.0819e-19)
(-0.0561965 -0.00725653 8.0062e-19)
(-0.0543762 -0.0141902 0)
(-0.0515445 -0.0215927 0)
(-0.0484259 -0.0299551 8.14988e-19)
(-0.0452313 -0.0398486 -7.55915e-19)
(-0.043826 -0.0514636 0)
(-0.0387546 -0.065369 -1.59222e-18)
(-0.0252417 -0.0822739 -6.95678e-18)
(-0.00413615 -0.0993454 1.69573e-17)
(0.0244626 -0.112867 -8.51897e-18)
(0.0543209 -0.119435 -5.95927e-18)
(0.0884629 -0.119798 -6.07247e-18)
(0.125052 -0.113455 -6.07922e-20)
(0.163595 -0.100855 -4.76066e-18)
(0.203863 -0.0829232 5.44666e-19)
(0.245412 -0.0604009 0)
(0.288318 -0.0342832 1.20603e-17)
(0.333555 -0.00567106 4.91286e-19)
(0.382288 0.0242301 -2.29309e-19)
(0.435713 0.0537393 2.10922e-19)
(0.494718 0.0804702 0)
(0.558611 0.101741 -3.57369e-20)
(0.624631 0.115084 3.85725e-18)
(0.688556 0.118845 -1.52934e-18)
(0.745555 0.113229 1.39889e-20)
(0.790544 0.100788 -5.4361e-20)
(0.820252 0.0845778 0)
(0.836075 0.0661999 2.52855e-21)
(0.841567 0.0482748 -2.42366e-21)
(0.866647 0.0335984 0)
(0.864556 0.0226286 0)
(0.857042 0.0126559 4.7826e-19)
(0.840889 0.00290005 8.20301e-19)
(0.814233 -0.00672886 4.09209e-19)
(0.776932 -0.0149553 0)
(0.729417 -0.0205075 4.54398e-19)
(0.672753 -0.0225142 -1.83131e-20)
(0.609385 -0.0212268 1.27549e-18)
(0.538964 -0.0176712 0)
(0.467596 -0.0100999 -7.41907e-19)
(0.388816 0.00049129 -1.25956e-19)
(0.313636 0.0112051 0)
(0.23059 0.0295824 1.90812e-19)
(0.150027 0.0436449 -2.69181e-19)
(0.0822547 0.0467593 -9.45179e-19)
(-0.0197582 0.0576394 1.47293e-18)
(-0.0901444 0.0474648 4.64629e-18)
(-0.12059 0.0266044 0)
(-0.12714 0.0094335 -9.13543e-19)
(-0.121596 0.00230455 8.68159e-19)
(-0.120128 0.00291229 0)
(-0.114337 0.00535291 0)
(-0.108905 0.00587712 0)
(-0.100619 0.00708336 0)
(-0.0926076 0.00994639 0)
(-0.0851626 0.0140199 -1.38476e-18)
(-0.0788099 0.0187731 1.41407e-18)
(-0.0736679 0.0237765 1.42504e-18)
(-0.0694906 0.0284743 -1.4299e-18)
(-0.0658162 0.0324746 0)
(-0.062454 0.0356613 0)
(-0.0596022 0.0379154 0)
(-0.0576628 0.0389833 0)