/*--------------------------------*- C++ -*----------------------------------*\
| =========                 |                                                 |
| \\      /  F ield         | OpenFOAM: The Open Source CFD Toolbox           |
|  \\    /   O peration     | Version:  v1912                                 |
|   \\  /    A nd           | Website:  www.openfoam.com                      |
|    \\/     M anipulation  |                                                 |
\*---------------------------------------------------------------------------*/
FoamFile
{
    version     2.0;
    format      ascii;
    class       surfaceScalarField;
    location    "7000";
    object      phi;
}
// * * * * * * * * * * * * * * * * * * * * * * * * * * * * * * * * * * * * * //

dimensions      [0 3 -1 0 0 0 0];
oriented        oriented;


internalField   nonuniform List<scalar> 
4900
(
8.8624e-16
9.02817e-16
-6.86976e-11
6.86985e-11
-2.69347e-10
2.0065e-10
-7.08186e-10
4.38839e-10
-1.47498e-09
7.66793e-10
-2.54294e-09
1.06796e-09
-3.70845e-09
1.16551e-09
-4.61768e-09
9.09229e-10
-4.87334e-09
2.55658e-10
-4.14945e-09
-7.23892e-10
-2.26213e-09
-1.88732e-09
8.14199e-10
-3.07633e-09
4.97219e-09
-4.15799e-09
1.00178e-08
-5.04559e-09
1.57184e-08
-5.70066e-09
2.18424e-08
-6.12397e-09
2.81845e-08
-6.34207e-09
3.45791e-08
-6.39466e-09
4.0904e-08
-6.32485e-09
4.70766e-08
-6.17262e-09
5.30482e-08
-5.97155e-09
5.87955e-08
-5.74733e-09
6.43134e-08
-5.51789e-09
6.96076e-08
-5.2942e-09
7.46889e-08
-5.08133e-09
7.95685e-08
-4.87955e-09
8.42538e-08
-4.68532e-09
8.87459e-08
-4.49211e-09
9.30368e-08
-4.29093e-09
9.71076e-08
-4.07081e-09
1.00927e-07
-3.81906e-09
1.04448e-07
-3.52152e-09
1.07611e-07
-3.16272e-09
1.10337e-07
-2.72617e-09
1.12532e-07
-2.19468e-09
1.14083e-07
-1.55103e-09
1.14863e-07
-7.79768e-10
1.14732e-07
1.30655e-10
1.1354e-07
1.19167e-09
1.11128e-07
2.41211e-09
1.07339e-07
3.78932e-09
1.02028e-07
5.31119e-09
9.50761e-08
6.95149e-09
8.64024e-08
8.67377e-09
7.59775e-08
1.04249e-08
6.38247e-08
1.21528e-08
5.00294e-08
1.37953e-08
3.47034e-08
1.5326e-08
1.79962e-08
1.67072e-08
1.79962e-08
6.86985e-11
-6.86975e-11
6.86985e-11
6.86985e-11
-1.6567e-10
4.35019e-10
-8.27368e-10
1.10054e-09
-2.05857e-09
1.998e-09
-3.7541e-09
2.76349e-09
-5.43241e-09
2.84383e-09
-6.30511e-09
1.78193e-09
-5.5135e-09
-5.3595e-10
-2.37373e-09
-3.86367e-09
3.47753e-09
-7.73857e-09
1.20547e-08
-1.16535e-08
2.30824e-08
-1.51857e-08
3.60978e-08
-1.8061e-08
5.05573e-08
-2.01601e-08
6.59227e-08
-2.14894e-08
8.17191e-08
-2.21384e-08
9.75637e-08
-2.22392e-08
1.13174e-07
-2.19348e-08
1.28359e-07
-2.13581e-08
1.43008e-07
-2.06205e-08
1.57069e-07
-1.98079e-08
1.70531e-07
-1.898e-08
1.8341e-07
-1.81736e-08
1.95734e-07
-1.74054e-08
2.07531e-07
-1.66764e-08
2.1882e-07
-1.59743e-08
2.29605e-07
-1.52768e-08
2.39867e-07
-1.45529e-08
2.49561e-07
-1.37652e-08
2.58612e-07
-1.28697e-08
2.66908e-07
-1.18178e-08
2.74301e-07
-1.05558e-08
2.80602e-07
-9.02681e-09
2.85578e-07
-7.17121e-09
2.88956e-07
-4.92926e-09
2.90424e-07
-2.24704e-09
2.89638e-07
9.16604e-10
2.86228e-07
4.60144e-09
2.79803e-07
8.8372e-09
2.69975e-07
1.36169e-08
2.56388e-07
1.88983e-08
2.38746e-07
2.45941e-08
2.16843e-07
3.05763e-08
1.906e-07
3.66676e-08
1.60072e-07
4.26814e-08
1.25452e-07
4.84151e-08
8.70191e-08
5.3759e-08
4.5125e-08
5.86012e-08
6.31212e-08
2.0065e-10
-2.69347e-10
4.35019e-10
-1.6567e-10
4.35019e-10
4.35019e-10
-1.04759e-11
1.54603e-09
-1.00269e-09
2.99021e-09
-2.31119e-09
4.07199e-09
-3.17411e-09
3.70675e-09
-2.41539e-09
1.02321e-09
1.18094e-09
-4.13228e-09
8.52448e-09
-1.12072e-08
2.00426e-08
-1.92567e-08
3.56684e-08
-2.72793e-08
5.49376e-08
-3.44549e-08
7.71351e-08
-4.02585e-08
1.01442e-07
-4.44668e-08
1.27054e-07
-4.71012e-08
1.5326e-07
-4.8345e-08
1.79486e-07
-4.84655e-08
2.05303e-07
-4.7752e-08
2.3042e-07
-4.64745e-08
2.5466e-07
-4.48609e-08
2.7794e-07
-4.30874e-08
3.00238e-07
-4.1278e-08
3.21574e-07
-3.95094e-08
3.41986e-07
-3.78173e-08
3.61513e-07
-3.62037e-08
3.80182e-07
-3.46432e-08
3.97993e-07
-3.30883e-08
4.14914e-07
-3.14732e-08
4.30865e-07
-2.97168e-08
4.4572e-07
-2.77247e-08
4.59293e-07
-2.53904e-08
4.71334e-07
-2.25975e-08
4.81528e-07
-1.92208e-08
4.89487e-07
-1.51299e-08
4.94751e-07
-1.01932e-08
4.96795e-07
-4.29091e-09
4.95042e-07
2.66992e-09
4.88866e-07
1.07772e-08
4.77608e-07
2.00954e-08
4.60612e-07
3.0613e-08
4.37271e-07
4.22388e-08
4.07079e-07
5.47865e-08
3.69681e-07
6.79743e-08
3.24926e-07
8.14222e-08
2.72895e-07
9.4713e-08
2.13894e-07
1.07416e-07
1.48387e-07
1.19266e-07
7.6952e-08
1.30036e-07
1.40073e-07
4.38839e-10
-7.08186e-10
1.10054e-09
-8.27368e-10
1.54603e-09
-1.04758e-11
1.54603e-09
1.54603e-09
1.19697e-09
3.33928e-09
1.05017e-09
4.21878e-09
2.25389e-09
2.50303e-09
6.34197e-09
-3.06487e-09
1.4723e-08
-1.25133e-08
2.82991e-08
-2.47833e-08
4.73474e-08
-3.8305e-08
7.15801e-08
-5.1512e-08
1.00292e-07
-6.31669e-08
1.32536e-07
-7.2502e-08
1.67279e-07
-7.92101e-08
2.0353e-07
-8.33522e-08
2.40418e-07
-8.52329e-08
2.77235e-07
-8.52826e-08
3.13449e-07
-8.39657e-08
3.48691e-07
-8.17163e-08
3.82733e-07
-7.89037e-08
4.15461e-07
-7.58151e-08
4.46838e-07
-7.26552e-08
4.7688e-07
-6.95515e-08
5.05628e-07
-6.65648e-08
5.33123e-07
-6.36992e-08
5.59392e-07
-6.09123e-08
5.84428e-07
-5.81235e-08
6.08174e-07
-5.52197e-08
6.30518e-07
-5.20604e-08
6.51274e-07
-4.84808e-08
6.70178e-07
-4.42943e-08
6.86875e-07
-3.92954e-08
7.00917e-07
-3.32628e-08
7.11752e-07
-2.59646e-08
7.18726e-07
-1.71668e-08
7.21088e-07
-6.65357e-09
7.18014e-07
5.74458e-09
7.08606e-07
2.01847e-08
6.9192e-07
3.6781e-08
6.67014e-07
5.55188e-08
6.33014e-07
7.62398e-08
5.89179e-07
9.86206e-08
5.34992e-07
1.22162e-07
4.70214e-07
1.462e-07
3.9494e-07
1.69987e-07
3.09586e-07
1.9277e-07
2.14802e-07
2.14051e-07
1.11398e-07
2.3344e-07
2.51471e-07
7.66793e-10
-1.47498e-09
1.998e-09
-2.05857e-09
2.99021e-09
-1.00269e-09
3.33928e-09
1.19697e-09
3.33928e-09
3.33928e-09
4.1787e-09
3.37936e-09
7.76833e-09
-1.0866e-09
1.61135e-08
-1.14101e-08
3.06227e-08
-2.70224e-08
5.18671e-08
-4.60277e-08
7.96915e-08
-6.61295e-08
1.13422e-07
-8.52426e-08
1.52065e-07
-1.0181e-07
1.94478e-07
-1.14915e-07
2.395e-07
-1.24232e-07
2.8605e-07
-1.29903e-07
3.33189e-07
-1.32371e-07
3.80148e-07
-1.32242e-07
4.2634e-07
-1.30158e-07
4.7135e-07
-1.26726e-07
5.14909e-07
-1.22463e-07
5.56869e-07
-1.17775e-07
5.97172e-07
-1.12958e-07
6.35816e-07
-1.08196e-07
6.72831e-07
-1.0358e-07
7.08249e-07
-9.91173e-08
7.42084e-07
-9.47472e-08
7.74311e-07
-9.03498e-08
8.04846e-07
-8.57549e-08
8.33534e-07
-8.07489e-08
8.60133e-07
-7.50792e-08
8.84296e-07
-6.84578e-08
9.05567e-07
-6.05658e-08
9.23362e-07
-5.10584e-08
9.36971e-07
-3.95729e-08
9.45546e-07
-2.57419e-08
9.48116e-07
-9.22358e-09
9.43605e-07
1.02552e-08
9.30849e-07
3.29412e-08
9.08617e-07
5.90127e-08
8.75681e-07
8.84553e-08
8.30893e-07
1.21028e-07
7.7328e-07
1.56233e-07
7.02147e-07
1.93295e-07
6.17163e-07
2.31184e-07
5.18425e-07
2.68724e-07
4.06445e-07
3.0475e-07
2.8205e-07
3.38446e-07
1.46278e-07
3.69212e-07
3.97749e-07
1.06796e-09
-2.54294e-09
2.76349e-09
-3.7541e-09
4.07199e-09
-2.31119e-09
4.21878e-09
1.05017e-09
3.37936e-09
4.1787e-09
3.37936e-09
3.37936e-09
7.33735e-09
-5.04458e-09
1.82031e-08
-2.22758e-08
3.75558e-08
-4.63752e-08
6.55426e-08
-7.40145e-08
1.01405e-07
-1.01992e-07
1.43953e-07
-1.27791e-07
1.91847e-07
-1.49705e-07
2.43749e-07
-1.66816e-07
2.984e-07
-1.78884e-07
3.54674e-07
-1.86177e-07
4.11601e-07
-1.89297e-07
4.6838e-07
-1.89021e-07
5.24385e-07
-1.86163e-07
5.79151e-07
-1.81492e-07
6.3236e-07
-1.75672e-07
6.83813e-07
-1.69228e-07
7.33404e-07
-1.62549e-07
7.81093e-07
-1.55884e-07
8.26871e-07
-1.49358e-07
8.7074e-07
-1.42986e-07
9.12682e-07
-1.3669e-07
9.52641e-07
-1.30308e-07
9.90495e-07
-1.23608e-07
1.02604e-06
-1.16293e-07
1.05897e-06
-1.08007e-07
1.08885e-06
-9.83446e-08
1.11514e-06
-8.68503e-08
1.13711e-06
-7.3031e-08
1.1539e-06
-5.63655e-08
1.16449e-06
-3.63244e-08
1.16767e-06
-1.24093e-08
1.16214e-06
1.57842e-08
1.14647e-06
4.86121e-08
1.11915e-06
8.63311e-08
1.07868e-06
1.28932e-07
1.02363e-06
1.76076e-07
9.52801e-07
2.27061e-07
8.65323e-07
2.80773e-07
7.60762e-07
3.35745e-07
6.39212e-07
3.90275e-07
5.01269e-07
4.42692e-07
3.47933e-07
4.91782e-07
1.80464e-07
5.36681e-07
5.78213e-07
1.16551e-09
-3.70845e-09
2.84383e-09
-5.43241e-09
3.70675e-09
-3.17411e-09
2.50303e-09
2.25389e-09
-1.0866e-09
7.76833e-09
-5.04458e-09
7.33735e-09
-5.04458e-09
-5.04458e-09
3.34737e-09
-3.06678e-08
2.26175e-08
-6.56453e-08
5.30337e-08
-1.04431e-07
9.34646e-08
-1.42423e-07
1.42208e-07
-1.76534e-07
1.97481e-07
-2.04977e-07
2.57627e-07
-2.26962e-07
3.21185e-07
-2.42442e-07
3.86897e-07
-2.51888e-07
4.53695e-07
-2.56096e-07
5.20697e-07
-2.56023e-07
5.87192e-07
-2.52658e-07
6.52626e-07
-2.46926e-07
7.16589e-07
-2.39635e-07
7.78793e-07
-2.31433e-07
8.39048e-07
-2.22804e-07
8.97234e-07
-2.1407e-07
9.53276e-07
-2.054e-07
1.00711e-06
-1.96824e-07
1.05867e-06
-1.88251e-07
1.10785e-06
-1.79481e-07
1.15446e-06
-1.70217e-07
1.19824e-06
-1.60074e-07
1.23882e-06
-1.48585e-07
1.27568e-06
-1.3521e-07
1.30817e-06
-1.1934e-07
1.33545e-06
-1.0031e-07
1.3565e-06
-7.74177e-08
1.37012e-06
-4.99421e-08
1.37491e-06
-1.72007e-08
1.36932e-06
2.13724e-08
1.35168e-06
6.62591e-08
1.3202e-06
1.17809e-07
1.27311e-06
1.76023e-07
1.20873e-06
2.40456e-07
1.12562e-06
3.10166e-07
1.02274e-06
3.83652e-07
8.99557e-07
4.5893e-07
7.56149e-07
5.33684e-07
5.93198e-07
6.05643e-07
4.11874e-07
6.73105e-07
2.1367e-07
7.34886e-07
7.91882e-07
9.09229e-10
-4.61768e-09
1.78193e-09
-6.30511e-09
1.02321e-09
-2.41539e-09
-3.06487e-09
6.34197e-09
-1.14101e-08
1.61135e-08
-2.22758e-08
1.82031e-08
-3.06678e-08
3.34737e-09
-3.06678e-08
-3.06678e-08
-1.81892e-08
-7.81238e-08
8.10882e-09
-1.30729e-07
4.74461e-08
-1.8176e-07
9.79438e-08
-2.27032e-07
1.57401e-07
-2.64435e-07
2.23711e-07
-2.93272e-07
2.95019e-07
-3.1375e-07
3.69753e-07
-3.26622e-07
4.46601e-07
-3.32944e-07
5.24477e-07
-3.33899e-07
6.02493e-07
-3.30674e-07
6.79938e-07
-3.24371e-07
7.56249e-07
-3.15947e-07
8.31e-07
-3.06183e-07
9.03868e-07
-2.95672e-07
9.74616e-07
-2.84818e-07
1.04306e-06
-2.73843e-07
1.10904e-06
-2.62805e-07
1.1724e-06
-2.51611e-07
1.23295e-06
-2.40028e-07
1.29043e-06
-2.27699e-07
1.3445e-06
-2.14148e-07
1.39471e-06
-1.98792e-07
1.44045e-06
-1.80947e-07
1.48094e-06
-1.59837e-07
1.51524e-06
-1.34608e-07
1.54217e-06
-1.04349e-07
1.56036e-06
-6.81282e-08
1.56821e-06
-2.50492e-08
1.56394e-06
2.56438e-08
1.54562e-06
8.45754e-08
1.51123e-06
1.52202e-07
1.45871e-06
2.2854e-07
1.38614e-06
3.13026e-07
1.29185e-06
4.04454e-07
1.17463e-06
5.00877e-07
1.03383e-06
5.99728e-07
8.69529e-07
6.97982e-07
6.82496e-07
7.92676e-07
4.74074e-07
8.81527e-07
2.46002e-07
9.62958e-07
1.03788e-06
2.55658e-10
-4.87334e-09
-5.3595e-10
-5.5135e-09
-4.13228e-09
1.18094e-09
-1.25133e-08
1.4723e-08
-2.70224e-08
3.06227e-08
-4.63752e-08
3.75558e-08
-6.56453e-08
2.26175e-08
-7.81238e-08
-1.81892e-08
-7.81238e-08
-7.81238e-08
-6.25401e-08
-1.46313e-07
-3.08806e-08
-2.13419e-07
1.55278e-08
-2.73441e-07
7.44538e-08
-3.23361e-07
1.43429e-07
-3.62247e-07
2.20117e-07
-3.90438e-07
3.02465e-07
-4.08971e-07
3.88738e-07
-4.19217e-07
4.77492e-07
-4.22653e-07
5.6754e-07
-4.20722e-07
6.57915e-07
-4.14746e-07
7.47835e-07
-4.05867e-07
8.36675e-07
-3.95022e-07
9.23934e-07
-3.82932e-07
1.00921e-06
-3.70097e-07
1.09218e-06
-3.5681e-07
1.17254e-06
-3.43169e-07
1.25002e-06
-3.29089e-07
1.32431e-06
-3.14313e-07
1.39504e-06
-2.98429e-07
1.46176e-06
-2.80875e-07
1.52392e-06
-2.6095e-07
1.58079e-06
-2.37819e-07
1.63149e-06
-2.10528e-07
1.6749e-06
-1.78021e-07
1.70971e-06
-1.39162e-07
1.73436e-06
-9.27819e-08
1.74706e-06
-3.77498e-08
1.7458e-06
2.69096e-08
1.7284e-06
1.01978e-07
1.69257e-06
1.8803e-07
1.63601e-06
2.85103e-07
1.55652e-06
3.92508e-07
1.45224e-06
5.08741e-07
1.32175e-06
6.31365e-07
1.16433e-06
7.57151e-07
9.80033e-07
8.82276e-07
7.69724e-07
1.00299e-06
5.34936e-07
1.11632e-06
2.77672e-07
1.22022e-06
1.31556e-06
-7.23892e-10
-4.14945e-09
-3.86367e-09
-2.37373e-09
-1.12072e-08
8.52448e-09
-2.47833e-08
2.82991e-08
-4.60277e-08
5.18671e-08
-7.40145e-08
6.55426e-08
-1.04431e-07
5.30337e-08
-1.30729e-07
8.10882e-09
-1.46313e-07
-6.25401e-08
-1.46313e-07
-1.46313e-07
-1.2835e-07
-2.31382e-07
-9.23513e-08
-3.0944e-07
-3.98487e-08
-3.75863e-07
2.67797e-08
-4.28875e-07
1.04898e-07
-4.68555e-07
1.91965e-07
-4.96038e-07
2.85709e-07
-5.12961e-07
3.84182e-07
-5.21126e-07
4.85755e-07
-5.22295e-07
5.89085e-07
-5.18076e-07
6.93076e-07
-5.09858e-07
7.96833e-07
-4.9878e-07
8.99627e-07
-4.85725e-07
1.00085e-06
-4.71322e-07
1.1e-06
-4.55954e-07
1.1966e-06
-4.39771e-07
1.29022e-06
-4.22708e-07
1.3804e-06
-4.04495e-07
1.46664e-06
-3.84671e-07
1.54835e-06
-3.62589e-07
1.62483e-06
-3.37427e-07
1.69521e-06
-3.082e-07
1.75845e-06
-2.73767e-07
1.81328e-06
-2.32855e-07
1.85821e-06
-1.8409e-07
1.89148e-06
-1.26051e-07
1.91108e-06
-5.73486e-08
1.91475e-06
2.32365e-08
1.90008e-06
1.16657e-07
1.86449e-06
2.23614e-07
1.80542e-06
3.44169e-07
1.72044e-06
4.77496e-07
1.60741e-06
6.21766e-07
1.46478e-06
7.73995e-07
1.29171e-06
9.3022e-07
1.08826e-06
1.08573e-06
8.55386e-07
1.23586e-06
5.94822e-07
1.37688e-06
3.0887e-07
1.50617e-06
1.62443e-06
-1.88732e-09
-2.26213e-09
-7.73857e-09
3.47753e-09
-1.92567e-08
2.00426e-08
-3.8305e-08
4.73474e-08
-6.61295e-08
7.96915e-08
-1.01992e-07
1.01405e-07
-1.42423e-07
9.34646e-08
-1.8176e-07
4.74461e-08
-2.13419e-07
-3.08806e-08
-2.31382e-07
-1.2835e-07
-2.31382e-07
-2.31382e-07
-2.11404e-07
-3.29417e-07
-1.71508e-07
-4.1576e-07
-1.13258e-07
-4.87125e-07
-3.90858e-08
-5.42727e-07
4.82438e-08
-5.83367e-07
1.45994e-07
-6.10711e-07
2.51659e-07
-6.2679e-07
3.63051e-07
-6.33687e-07
4.78321e-07
-6.33346e-07
5.95934e-07
-6.2747e-07
7.14627e-07
-6.17473e-07
8.33363e-07
-6.04461e-07
9.51276e-07
-5.89236e-07
1.06763e-06
-5.72306e-07
1.18176e-06
-5.53903e-07
1.29305e-06
-5.33997e-07
1.40087e-06
-5.12314e-07
1.50454e-06
-4.88345e-07
1.60331e-06
-4.61361e-07
1.69631e-06
-4.3042e-07
1.78248e-06
-3.94373e-07
1.8606e-06
-3.51888e-07
1.92921e-06
-3.01465e-07
1.9866e-06
-2.41478e-07
2.03078e-06
-1.70234e-07
2.0595e-06
-8.60706e-08
2.07024e-06
1.24962e-08
2.0603e-06
1.26606e-07
2.02682e-06
2.57086e-07
1.96697e-06
4.04023e-07
1.87802e-06
5.66441e-07
1.75764e-06
7.42154e-07
1.60406e-06
9.27574e-07
1.41635e-06
1.11793e-06
1.19458e-06
1.3075e-06
9.39791e-07
1.49065e-06
6.53966e-07
1.6627e-06
3.39723e-07
1.82042e-06
1.96415e-06
-3.07633e-09
8.14199e-10
-1.16535e-08
1.20547e-08
-2.72793e-08
3.56684e-08
-5.1512e-08
7.15801e-08
-8.52426e-08
1.13422e-07
-1.27791e-07
1.43953e-07
-1.76534e-07
1.42208e-07
-2.27032e-07
9.79438e-08
-2.73441e-07
1.55278e-08
-3.0944e-07
-9.23513e-08
-3.29417e-07
-2.11404e-07
-3.29417e-07
-3.29417e-07
-3.07549e-07
-4.37628e-07
-2.63859e-07
-5.30815e-07
-1.99875e-07
-6.06711e-07
-1.18046e-07
-6.65197e-07
-2.12413e-08
-7.07515e-07
8.76132e-08
-7.35645e-07
2.05775e-07
-7.51849e-07
3.30804e-07
-7.58375e-07
4.60606e-07
-7.57273e-07
5.93424e-07
-7.50292e-07
7.278e-07
-7.38836e-07
8.62515e-07
-7.23952e-07
9.96541e-07
-7.06332e-07
1.12897e-06
-6.86332e-07
1.25897e-06
-6.63992e-07
1.3857e-06
-6.3905e-07
1.50832e-06
-6.10961e-07
1.62587e-06
-5.78912e-07
1.73728e-06
-5.41832e-07
1.84131e-06
-4.98406e-07
1.93652e-06
-4.4709e-07
2.02119e-06
-3.86144e-07
2.09339e-06
-3.13672e-07
2.15085e-06
-2.27695e-07
2.19104e-06
-1.26259e-07
2.21113e-06
-7.59738e-09
2.2081e-06
1.29636e-07
2.1788e-06
2.86386e-07
2.12007e-06
4.6276e-07
2.02889e-06
6.57618e-07
1.90267e-06
8.68374e-07
1.73946e-06
1.09078e-06
1.53822e-06
1.31916e-06
1.29901e-06
1.54671e-06
1.02301e-06
1.76665e-06
7.12432e-07
1.97328e-06
3.70272e-07
2.16258e-06
2.33442e-06
-4.15799e-09
4.97219e-09
-1.51857e-08
2.30824e-08
-3.44549e-08
5.49376e-08
-6.31669e-08
1.00292e-07
-1.0181e-07
1.52065e-07
-1.49705e-07
1.91847e-07
-2.04977e-07
1.97481e-07
-2.64435e-07
1.57401e-07
-3.23361e-07
7.44538e-08
-3.75863e-07
-3.98487e-08
-4.1576e-07
-1.71508e-07
-4.37628e-07
-3.07549e-07
-4.37628e-07
-4.37628e-07
-4.13871e-07
-5.54572e-07
-3.66335e-07
-6.54247e-07
-2.96482e-07
-7.3505e-07
-2.06761e-07
-7.97236e-07
-1.00135e-07
-8.42271e-07
2.02967e-08
-8.7228e-07
1.51558e-07
-8.89636e-07
2.90947e-07
-8.96663e-07
4.36109e-07
-8.95453e-07
5.85034e-07
-8.87761e-07
7.36031e-07
-8.74949e-07
8.8767e-07
-8.5797e-07
1.03871e-06
-8.37374e-07
1.18804e-06
-8.13322e-07
1.3346e-06
-7.85607e-07
1.47731e-06
-7.53671e-07
1.61502e-06
-7.16626e-07
1.74646e-06
-6.73271e-07
1.87016e-06
-6.22108e-07
1.98444e-06
-5.61368e-07
2.08734e-06
-4.89048e-07
2.17663e-06
-4.02956e-07
2.24974e-06
-3.00805e-07
2.30381e-06
-1.80326e-07
2.33566e-06
-3.94521e-08
2.3419e-06
1.23392e-07
2.31903e-06
3.09256e-07
2.26353e-06
5.18265e-07
2.17206e-06
7.49087e-07
2.04174e-06
9.98695e-07
1.87041e-06
1.26211e-06
1.6569e-06
1.53267e-06
1.40128e-06
1.80234e-06
1.10485e-06
2.06308e-06
7.7011e-07
2.30802e-06
4.00466e-07
2.53222e-06
2.73489e-06
-5.04559e-09
1.00178e-08
-1.8061e-08
3.60978e-08
-4.02585e-08
7.71351e-08
-7.2502e-08
1.32536e-07
-1.14915e-07
1.94478e-07
-1.66816e-07
2.43749e-07
-2.26962e-07
2.57627e-07
-2.93272e-07
2.23711e-07
-3.62247e-07
1.43429e-07
-4.28875e-07
2.67797e-08
-4.87125e-07
-1.13258e-07
-5.30815e-07
-2.63859e-07
-5.54572e-07
-4.13871e-07
-5.54572e-07
-5.54572e-07
-5.28874e-07
-6.79944e-07
-4.77367e-07
-7.86557e-07
-4.01437e-07
-8.73166e-07
-3.03525e-07
-9.40183e-07
-1.86672e-07
-9.89133e-07
-5.41419e-08
-1.02217e-06
9.08613e-08
-1.04167e-06
2.45369e-07
-1.04996e-06
4.06743e-07
-1.04913e-06
5.72693e-07
-1.0409e-06
7.41256e-07
-1.02653e-06
9.10741e-07
-1.00686e-06
1.07965e-06
-9.82235e-07
1.24662e-06
-9.52572e-07
1.4103e-06
-9.17347e-07
1.5693e-06
-8.75628e-07
1.72212e-06
-8.26093e-07
1.86707e-06
-7.6706e-07
2.00222e-06
-6.96518e-07
2.12535e-06
-6.12172e-07
2.2339e-06
-5.11506e-07
2.32498e-06
-3.91888e-07
2.39535e-06
-2.50703e-07
2.44146e-06
-8.55612e-08
2.45948e-06
1.05374e-07
2.44549e-06
3.2325e-07
2.39556e-06
5.68197e-07
2.30598e-06
8.38665e-07
2.17354e-06
1.13113e-06
1.99583e-06
1.43982e-06
1.77155e-06
1.75695e-06
1.50074e-06
2.07315e-06
1.18486e-06
2.37896e-06
8.26711e-07
2.66618e-06
4.30164e-07
2.92877e-06
3.16505e-06
-5.70066e-09
1.57184e-08
-2.01601e-08
5.05573e-08
-4.44668e-08
1.01442e-07
-7.92101e-08
1.67279e-07
-1.24232e-07
2.395e-07
-1.78884e-07
2.984e-07
-2.42442e-07
3.21185e-07
-3.1375e-07
2.95019e-07
-3.90438e-07
2.20117e-07
-4.68555e-07
1.04898e-07
-5.42727e-07
-3.90858e-08
-6.06711e-07
-1.99875e-07
-6.54247e-07
-3.66335e-07
-6.79944e-07
-5.28874e-07
-6.79944e-07
-6.79944e-07
-6.52229e-07
-8.14273e-07
-5.96584e-07
-9.28811e-07
-5.14317e-07
-1.02245e-06
-4.07854e-07
-1.0956e-06
-2.80304e-07
-1.14972e-06
-1.35088e-07
-1.18688e-06
2.43629e-08
-1.20941e-06
1.94804e-07
-1.21958e-06
3.7329e-07
-1.21938e-06
5.57218e-07
-1.21046e-06
7.44308e-07
-1.19395e-06
9.32556e-07
-1.17048e-06
1.12015e-06
-1.14017e-06
1.30539e-06
-1.10259e-06
1.48659e-06
-1.05682e-06
1.66196e-06
-1.00147e-06
1.82957e-06
-9.3467e-07
1.98723e-06
-8.54174e-07
2.13243e-06
-7.5737e-07
2.26231e-06
-6.41386e-07
2.37362e-06
-5.032e-07
2.46273e-06
-3.39812e-07
2.52564e-06
-1.4847e-07
2.55805e-06
7.29634e-08
2.55555e-06
3.25743e-07
2.51376e-06
6.09989e-07
2.42852e-06
9.23907e-07
2.29623e-06
1.26343e-06
2.11418e-06
1.62186e-06
1.88091e-06
1.99022e-06
1.59642e-06
2.35763e-06
1.26233e-06
2.71305e-06
8.8176e-07
3.04674e-06
4.59129e-07
3.3514e-06
3.62418e-06
-6.12397e-09
2.18424e-08
-2.14894e-08
6.59227e-08
-4.71012e-08
1.27054e-07
-8.33522e-08
2.0353e-07
-1.29903e-07
2.8605e-07
-1.86177e-07
3.54674e-07
-2.51888e-07
3.86897e-07
-3.26622e-07
3.69753e-07
-4.08971e-07
3.02465e-07
-4.96038e-07
1.91965e-07
-5.83367e-07
4.82438e-08
-6.65197e-07
-1.18046e-07
-7.3505e-07
-2.96482e-07
-7.86557e-07
-4.77367e-07
-8.14273e-07
-6.52229e-07
-8.14273e-07
-8.14273e-07
-7.84442e-07
-9.58642e-07
-7.24455e-07
-1.08244e-06
-6.35538e-07
-1.18451e-06
-5.20094e-07
-1.26516e-06
-3.81301e-07
-1.32568e-06
-2.22731e-07
-1.36798e-06
-4.80492e-08
-1.39426e-06
1.39209e-07
-1.40664e-06
3.35766e-07
-1.40702e-06
5.38663e-07
-1.39685e-06
7.45253e-07
-1.37707e-06
9.53156e-07
-1.34807e-06
1.16017e-06
-1.30961e-06
1.3642e-06
-1.26085e-06
1.56311e-06
-1.20037e-06
1.75464e-06
-1.1262e-06
1.93631e-06
-1.03585e-06
2.10533e-06
-9.26389e-07
2.25851e-06
-7.94567e-07
2.39225e-06
-6.36934e-07
2.50248e-06
-4.5005e-07
2.58476e-06
-2.3075e-07
2.63428e-06
2.3451e-08
2.64607e-06
3.13953e-07
2.6152e-06
6.40855e-07
2.53701e-06
1.00209e-06
2.40745e-06
1.39299e-06
2.22344e-06
1.80587e-06
1.9833e-06
2.23037e-06
1.68698e-06
2.65395e-06
1.33625e-06
3.06378e-06
9.34596e-07
3.44839e-06
4.87027e-07
3.79897e-06
4.11121e-06
-6.34207e-09
2.81845e-08
-2.21384e-08
8.17191e-08
-4.8345e-08
1.5326e-07
-8.52329e-08
2.40418e-07
-1.32371e-07
3.33189e-07
-1.89297e-07
4.11601e-07
-2.56096e-07
4.53695e-07
-3.32944e-07
4.46601e-07
-4.19217e-07
3.88738e-07
-5.12961e-07
2.85709e-07
-6.10711e-07
1.45994e-07
-7.07515e-07
-2.12413e-08
-7.97236e-07
-2.06761e-07
-8.73166e-07
-4.01437e-07
-9.28811e-07
-5.96584e-07
-9.58642e-07
-7.84442e-07
-9.58642e-07
-9.58642e-07
-9.26579e-07
-1.1145e-06
-8.62008e-07
-1.24909e-06
-7.66067e-07
-1.3611e-06
-6.41141e-07
-1.4506e-06
-4.90471e-07
-1.51865e-06
-3.17791e-07
-1.56694e-06
-1.27009e-07
-1.59743e-06
7.80239e-08
-1.61205e-06
2.93663e-07
-1.61249e-06
5.16545e-07
-1.59996e-06
7.43596e-07
-1.57512e-06
9.71986e-07
-1.538e-06
1.19905e-06
-1.48791e-06
1.42218e-06
-1.4235e-06
1.63871e-06
-1.34273e-06
1.84579e-06
-1.24293e-06
2.04029e-06
-1.12089e-06
2.21868e-06
-9.72957e-07
2.37698e-06
-7.95234e-07
2.51072e-06
-5.83789e-07
2.61496e-06
-3.34991e-07
2.68435e-06
-4.59432e-08
2.71334e-06
2.84963e-07
2.69639e-06
6.57802e-07
2.62825e-06
1.07024e-06
2.50432e-06
1.51693e-06
2.32109e-06
1.98909e-06
2.0766e-06
2.47486e-06
1.77072e-06
2.95984e-06
1.40534e-06
3.42916e-06
9.84353e-07
3.86938e-06
5.13418e-07
4.2699e-06
4.62462e-06
-6.39466e-09
3.45791e-08
-2.22392e-08
9.75637e-08
-4.84655e-08
1.79486e-07
-8.52826e-08
2.77235e-07
-1.32242e-07
3.80148e-07
-1.89021e-07
4.6838e-07
-2.56023e-07
5.20697e-07
-3.33899e-07
5.24477e-07
-4.22653e-07
4.77492e-07
-5.21126e-07
3.84182e-07
-6.2679e-07
2.51659e-07
-7.35645e-07
8.76132e-08
-8.42271e-07
-1.00135e-07
-9.40183e-07
-3.03525e-07
-1.02245e-06
-5.14317e-07
-1.08244e-06
-7.24455e-07
-1.1145e-06
-9.26579e-07
-1.1145e-06
-1.1145e-06
-1.08007e-06
-1.28352e-06
-1.01063e-06
-1.43054e-06
-9.0723e-07
-1.554e-06
-7.7224e-07
-1.65364e-06
-6.08974e-07
-1.7302e-06
-4.21336e-07
-1.78506e-06
-2.13503e-07
-1.81988e-06
1.0326e-08
-1.83631e-06
2.46096e-07
-1.83573e-06
4.89981e-07
-1.81901e-06
7.38407e-07
-1.78642e-06
9.88009e-07
-1.73751e-06
1.23555e-06
-1.67105e-06
1.47783e-06
-1.585e-06
1.71151e-06
-1.47661e-06
1.93303e-06
-1.34241e-06
2.13847e-06
-1.1784e-06
2.32344e-06
-9.80207e-07
2.48304e-06
-7.43394e-07
2.61185e-06
-4.638e-07
2.70397e-06
-1.38058e-07
2.7532e-06
2.35735e-07
2.75335e-06
6.57651e-07
2.6985e-06
1.12509e-06
2.58343e-06
1.63199e-06
2.40413e-06
2.16839e-06
2.15826e-06
2.72074e-06
1.84554e-06
3.27255e-06
1.46801e-06
3.8067e-06
1.02995e-06
4.30743e-06
5.3775e-07
4.7621e-06
5.16238e-06
-6.32485e-09
4.0904e-08
-2.19348e-08
1.13174e-07
-4.7752e-08
2.05303e-07
-8.39657e-08
3.13449e-07
-1.30158e-07
4.2634e-07
-1.86163e-07
5.24385e-07
-2.52658e-07
5.87192e-07
-3.30674e-07
6.02493e-07
-4.20722e-07
5.6754e-07
-5.22295e-07
4.85755e-07
-6.33687e-07
3.63051e-07
-7.51849e-07
2.05775e-07
-8.7228e-07
2.02967e-08
-9.89133e-07
-1.86672e-07
-1.0956e-06
-4.07854e-07
-1.18451e-06
-6.35538e-07
-1.24909e-06
-8.62008e-07
-1.28352e-06
-1.08007e-06
-1.28352e-06
-1.28352e-06
-1.24656e-06
-1.4675e-06
-1.17192e-06
-1.62863e-06
-1.06057e-06
-1.76499e-06
-9.14863e-07
-1.87591e-06
-7.38197e-07
-1.96173e-06
-5.34674e-07
-2.02341e-06
-3.0877e-07
-2.06222e-06
-6.50741e-08
-2.07942e-06
1.91889e-07
-2.07597e-06
4.57759e-07
-2.05229e-06
7.28377e-07
-2.00813e-06
9.99743e-07
-1.94241e-06
1.26794e-06
-1.8532e-06
1.52903e-06
-1.7377e-06
1.77889e-06
-1.59227e-06
2.0131e-06
-1.4126e-06
2.2268e-06
-1.19391e-06
2.41462e-06
-9.31217e-07
2.57063e-06
-6.19806e-07
2.68836e-06
-2.5579e-07
2.76097e-06
1.63126e-07
2.78157e-06
6.37053e-07
2.74351e-06
1.16315e-06
2.64088e-06
1.73462e-06
2.46905e-06
2.34022e-06
2.22523e-06
2.96455e-06
1.90896e-06
3.58883e-06
1.52233e-06
4.19333e-06
1.07007e-06
4.75969e-06
5.59351e-07
5.27282e-06
5.72173e-06
-6.17262e-09
4.70766e-08
-2.13581e-08
1.28359e-07
-4.64745e-08
2.3042e-07
-8.17163e-08
3.48691e-07
-1.26726e-07
4.7135e-07
-1.81492e-07
5.79151e-07
-2.46926e-07
6.52626e-07
-3.24371e-07
6.79938e-07
-4.14746e-07
6.57915e-07
-5.18076e-07
5.89085e-07
-6.33346e-07
4.78321e-07
-7.58375e-07
3.30804e-07
-8.89636e-07
1.51558e-07
-1.02217e-06
-5.41419e-08
-1.14972e-06
-2.80304e-07
-1.26516e-06
-5.20094e-07
-1.3611e-06
-7.66067e-07
-1.43054e-06
-1.01063e-06
-1.4675e-06
-1.24656e-06
-1.4675e-06
-1.4675e-06
-1.42783e-06
-1.6683e-06
-1.34763e-06
-1.84519e-06
-1.22778e-06
-1.99577e-06
-1.07062e-06
-2.11889e-06
-8.79678e-07
-2.21435e-06
-6.59274e-07
-2.28262e-06
-4.14227e-07
-2.32447e-06
-1.49573e-07
-2.34062e-06
1.29621e-07
-2.33149e-06
4.18377e-07
-2.29689e-06
7.11845e-07
-2.23588e-06
1.00528e-06
-2.14663e-06
1.29394e-06
-2.02636e-06
1.57302e-06
-1.87135e-06
1.83746e-06
-1.67704e-06
2.08181e-06
-1.43826e-06
2.30015e-06
-1.14956e-06
2.486e-06
-8.05651e-07
2.6323e-06
-4.02086e-07
2.73153e-06
6.38888e-08
2.77609e-06
5.92498e-07
2.75855e-06
1.18068e-06
2.67225e-06
1.82093e-06
2.51185e-06
2.50062e-06
2.27403e-06
3.20237e-06
1.95805e-06
3.90481e-06
1.56604e-06
4.58533e-06
1.10316e-06
5.22257e-06
5.77415e-07
5.79857e-06
6.29914e-06
-5.97155e-09
5.30482e-08
-2.06205e-08
1.43008e-07
-4.48609e-08
2.5466e-07
-7.89037e-08
3.82733e-07
-1.22463e-07
5.14909e-07
-1.75672e-07
6.3236e-07
-2.39635e-07
7.16589e-07
-3.15947e-07
7.56249e-07
-4.05867e-07
7.47835e-07
-5.09858e-07
6.93076e-07
-6.2747e-07
5.95934e-07
-7.57273e-07
4.60606e-07
-8.96663e-07
2.90947e-07
-1.04167e-06
9.08613e-08
-1.18688e-06
-1.35088e-07
-1.32568e-06
-3.81301e-07
-1.4506e-06
-6.41141e-07
-1.554e-06
-9.0723e-07
-1.62863e-06
-1.17192e-06
-1.6683e-06
-1.42783e-06
-1.6683e-06
-1.6683e-06
-1.62573e-06
-1.88776e-06
-1.53956e-06
-2.08194e-06
-1.41059e-06
-2.24785e-06
-1.2412e-06
-2.38374e-06
-1.03504e-06
-2.48878e-06
-7.9671e-07
-2.5628e-06
-5.31422e-07
-2.60591e-06
-2.44735e-07
-2.61817e-06
5.76581e-08
-2.59928e-06
3.70055e-07
-2.54828e-06
6.86797e-07
-2.46338e-06
1.00225e-06
-2.34181e-06
1.31072e-06
-2.17982e-06
1.60635e-06
-1.97267e-06
1.88298e-06
-1.71489e-06
2.134e-06
-1.40058e-06
2.35228e-06
-1.02393e-06
2.53011e-06
-5.79922e-07
2.65931e-06
-6.53095e-08
2.73148e-06
5.2033e-07
2.73842e-06
1.17374e-06
2.67263e-06
1.88671e-06
2.52803e-06
2.64523e-06
2.30068e-06
3.42971e-06
1.98946e-06
4.21603e-06
1.59651e-06
4.97828e-06
1.12739e-06
5.69169e-06
5.90996e-07
6.33497e-06
6.89014e-06
-5.74733e-09
5.87955e-08
-1.98079e-08
1.57069e-07
-4.30874e-08
2.7794e-07
-7.58151e-08
4.15461e-07
-1.17775e-07
5.56869e-07
-1.69228e-07
6.83813e-07
-2.31433e-07
7.78793e-07
-3.06183e-07
8.31e-07
-3.95022e-07
8.36675e-07
-4.9878e-07
7.96833e-07
-6.17473e-07
7.14627e-07
-7.50292e-07
5.93424e-07
-8.95453e-07
4.36109e-07
-1.04996e-06
2.45369e-07
-1.20941e-06
2.43629e-08
-1.36798e-06
-2.22731e-07
-1.51865e-06
-4.90471e-07
-1.65364e-06
-7.7224e-07
-1.76499e-06
-1.06057e-06
-1.84519e-06
-1.34763e-06
-1.88776e-06
-1.62573e-06
-1.88776e-06
-1.88776e-06
-1.84206e-06
-2.12764e-06
-1.74949e-06
-2.34043e-06
-1.61076e-06
-2.52247e-06
-1.4283e-06
-2.67124e-06
-1.20594e-06
-2.78516e-06
-9.48611e-07
-2.86324e-06
-6.61995e-07
-2.90479e-06
-3.52257e-07
-2.90902e-06
-2.58247e-08
-2.87471e-06
3.10753e-07
-2.79995e-06
6.50868e-07
-2.68193e-06
9.87839e-07
-2.51679e-06
1.31485e-06
-2.29968e-06
1.62483e-06
-2.02488e-06
1.91035e-06
-1.6861e-06
2.16349e-06
-1.27707e-06
2.3758e-06
-7.92229e-07
2.53833e-06
-2.27846e-07
2.64189e-06
4.16771e-07
2.67746e-06
1.13818e-06
2.63667e-06
1.9275e-06
2.51264e-06
2.76926e-06
2.30074e-06
3.64161e-06
1.99942e-06
4.51735e-06
1.61074e-06
5.36696e-06
1.14066e-06
6.16177e-06
5.99003e-07
6.87663e-06
7.48914e-06
-5.51789e-09
6.43134e-08
-1.898e-08
1.70531e-07
-4.1278e-08
3.00238e-07
-7.26552e-08
4.46838e-07
-1.12958e-07
5.97172e-07
-1.62549e-07
7.33404e-07
-2.22804e-07
8.39048e-07
-2.95672e-07
9.03868e-07
-3.82932e-07
9.23934e-07
-4.85725e-07
8.99627e-07
-6.04461e-07
8.33363e-07
-7.38836e-07
7.278e-07
-8.87761e-07
5.85034e-07
-1.04913e-06
4.06743e-07
-1.21958e-06
1.94804e-07
-1.39426e-06
-4.80492e-08
-1.56694e-06
-3.17791e-07
-1.7302e-06
-6.08974e-07
-1.87591e-06
-9.14863e-07
-1.99577e-06
-1.22778e-06
-2.08194e-06
-1.53956e-06
-2.12764e-06
-1.84206e-06
-2.12764e-06
-2.12764e-06
-2.07858e-06
-2.38949e-06
-1.97912e-06
-2.62192e-06
-1.82995e-06
-2.82042e-06
-1.63354e-06
-2.98156e-06
-1.39399e-06
-3.10279e-06
-1.1166e-06
-3.18218e-06
-8.07621e-07
-3.218e-06
-4.73931e-07
-3.2084e-06
-1.22817e-07
-3.15107e-06
2.38177e-07
-3.04292e-06
6.01332e-07
-2.87994e-06
9.58749e-07
-2.6571e-06
1.3023e-06
-2.36843e-06
1.62354e-06
-2.00734e-06
1.91359e-06
-1.56712e-06
2.16311e-06
-1.04176e-06
2.36232e-06
-4.27055e-07
2.50113e-06
2.77966e-07
2.56963e-06
1.06968e-06
2.55861e-06
1.93852e-06
2.4603e-06
2.86756e-06
2.26936e-06
3.83255e-06
1.98374e-06
4.80297e-06
1.60538e-06
5.74532e-06
1.14061e-06
6.62654e-06
6.00196e-07
7.41704e-06
8.08933e-06
-5.2942e-09
6.96076e-08
-1.81736e-08
1.8341e-07
-3.95094e-08
3.21574e-07
-6.95515e-08
4.7688e-07
-1.08196e-07
6.35816e-07
-1.55884e-07
7.81093e-07
-2.1407e-07
8.97234e-07
-2.84818e-07
9.74616e-07
-3.70097e-07
1.00921e-06
-4.71322e-07
1.00085e-06
-5.89236e-07
9.51276e-07
-7.23952e-07
8.62515e-07
-8.74949e-07
7.36031e-07
-1.0409e-06
5.72693e-07
-1.21938e-06
3.7329e-07
-1.40664e-06
1.39209e-07
-1.59743e-06
-1.27009e-07
-1.78506e-06
-4.21336e-07
-1.96173e-06
-7.38197e-07
-2.11889e-06
-1.07062e-06
-2.24785e-06
-1.41059e-06
-2.34043e-06
-1.74949e-06
-2.38949e-06
-2.07858e-06
-2.38949e-06
-2.38949e-06
-2.33682e-06
-2.67459e-06
-2.23e-06
-2.92724e-06
-2.06966e-06
-3.1419e-06
-1.85844e-06
-3.31402e-06
-1.6007e-06
-3.43992e-06
-1.30223e-06
-3.51646e-06
-9.69956e-07
-3.54068e-06
-6.11591e-07
-3.50943e-06
-2.35435e-07
-3.41908e-06
1.49809e-07
-3.26519e-06
5.35125e-07
-3.04241e-06
9.11207e-07
-2.74451e-06
1.26843e-06
-2.36456e-06
1.59679e-06
-1.89548e-06
1.88588e-06
-1.33085e-06
2.12489e-06
-6.66066e-07
2.30276e-06