/*--------------------------------*- C++ -*----------------------------------*\
| =========                 |                                                 |
| \\      /  F ield         | OpenFOAM: The Open Source CFD Toolbox           |
|  \\    /   O peration     | Version:  v1912                                 |
|   \\  /    A nd           | Website:  www.openfoam.com                      |
|    \\/     M anipulation  |                                                 |
\*---------------------------------------------------------------------------*/
FoamFile
{
    version     2.0;
    format      ascii;
    class       volSymmTensorField;
    location    "7000";
    object      turbulenceProperties:R;
}
// * * * * * * * * * * * * * * * * * * * * * * * * * * * * * * * * * * * * * //

dimensions      [0 2 -2 0 0 0 0];


internalField   nonuniform List<symmTensor> 
2500
(
(0.000833153 -3.45304e-05 -3.45304e-05 0.000833154 1.52943e-09 0.000833154)
(0.000890206 -2.60346e-05 -8.27012e-05 0.00089021 -4.4456e-10 0.000890204)
(0.00102293 -2.41198e-05 -0.000131026 0.00102294 3.34074e-09 0.00102292)
(0.0012296 -2.38537e-05 -0.000186697 0.00122963 1.55593e-08 0.00122959)
(0.00150054 -2.43454e-05 -0.000252531 0.00150058 4.33461e-08 0.00150052)
(0.00182336 -2.50423e-05 -0.000328874 0.00182342 9.2237e-08 0.00182333)
(0.00218576 -2.56209e-05 -0.000414842 0.00218583 1.58229e-07 0.00218575)
(0.00257678 -2.59171e-05 -0.00050903 0.00257683 2.23218e-07 0.00257681)
(0.00298722 -2.5871e-05 -0.000609877 0.00298724 2.57627e-07 0.00298732)
(0.00340961 -2.54904e-05 -0.000715849 0.00340957 2.2882e-07 0.00340981)
(0.00383799 -2.48182e-05 -0.000825533 0.00383789 1.09736e-07 0.00383832)
(0.00426771 -2.39145e-05 -0.000937673 0.00426755 -1.15638e-07 0.00426816)
(0.00469522 -2.28453e-05 -0.00105122 0.00469502 -4.50716e-07 0.00469582)
(0.00511796 -2.16721e-05 -0.00116531 0.00511772 -8.87968e-07 0.00511869)
(0.00553418 -2.04481e-05 -0.00127929 0.00553392 -1.41233e-06 0.00553504)
(0.00594278 -1.92136e-05 -0.00139268 0.00594251 -2.00494e-06 0.00594377)
(0.00634318 -1.79986e-05 -0.00150513 0.00634291 -2.64635e-06 0.00634429)
(0.00673514 -1.68252e-05 -0.00161641 0.00673488 -3.31877e-06 0.00673638)
(0.00711876 -1.57051e-05 -0.00172643 0.00711851 -4.00733e-06 0.00712013)
(0.00749424 -1.46432e-05 -0.00183506 0.00749401 -4.70048e-06 0.00749575)
(0.00786179 -1.3644e-05 -0.00194229 0.00786157 -5.38998e-06 0.00786344)
(0.00822173 -1.27054e-05 -0.00204811 0.00822153 -6.07049e-06 0.00822353)
(0.00857441 -1.18253e-05 -0.00215249 0.00857423 -6.73874e-06 0.00857636)
(0.00891995 -1.1e-05 -0.00225545 0.00891978 -7.39318e-06 0.00892207)
(0.00925862 -1.02255e-05 -0.00235695 0.00925847 -8.0332e-06 0.00926091)
(0.00959056 -9.49933e-06 -0.00245697 0.00959042 -8.65859e-06 0.00959302)
(0.00991576 -8.81712e-06 -0.00255548 0.00991564 -9.26917e-06 0.0099184)
(0.0102342 -8.1749e-06 -0.00265241 0.0102341 -9.86432e-06 0.0102371)
(0.010546 -7.57048e-06 -0.00274772 0.0105459 -1.04426e-05 0.010549)
(0.0108508 -7.0014e-06 -0.00284128 0.0108507 -1.10015e-05 0.010854)
(0.0111486 -6.46433e-06 -0.00293304 0.0111485 -1.15372e-05 0.011152)
(0.011439 -5.9572e-06 -0.00302287 0.011439 -1.20443e-05 0.0114426)
(0.0117219 -5.47783e-06 -0.00311064 0.0117218 -1.25157e-05 0.0117257)
(0.0119968 -5.02449e-06 -0.00319621 0.0119968 -1.29421e-05 0.0120008)
(0.0122634 -4.59563e-06 -0.00327943 0.0122633 -1.33121e-05 0.0122675)
(0.0125212 -4.18925e-06 -0.00336011 0.0125211 -1.36121e-05 0.0125255)
(0.0127696 -3.80387e-06 -0.00343806 0.0127696 -1.38264e-05 0.0127741)
(0.013008 -3.43883e-06 -0.00351304 0.013008 -1.3937e-05 0.0130127)
(0.0132359 -3.09284e-06 -0.00358485 0.0132359 -1.39249e-05 0.0132408)
(0.0134525 -2.76434e-06 -0.00365325 0.0134526 -1.37692e-05 0.0134575)
(0.0136571 -2.4525e-06 -0.00371794 0.0136571 -1.34482e-05 0.0136622)
(0.0138487 -2.15649e-06 -0.00377866 0.0138487 -1.29413e-05 0.013854)
(0.0140264 -1.87462e-06 -0.00383509 0.0140265 -1.22302e-05 0.0140319)
(0.0141892 -1.60596e-06 -0.00388679 0.0141893 -1.12999e-05 0.0141948)
(0.0143359 -1.3489e-06 -0.00393347 0.014336 -1.01427e-05 0.0143416)
(0.014465 -1.10054e-06 -0.00397456 0.0144651 -8.75559e-06 0.0144708)
(0.0145745 -8.58269e-07 -0.00400951 0.0145747 -7.14683e-06 0.0145804)
(0.0146624 -6.18408e-07 -0.00403754 0.0146625 -5.32734e-06 0.0146683)
(0.0147254 -3.7624e-07 -0.00405763 0.0147255 -3.31781e-06 0.0147314)
(0.0147594 -1.26974e-07 -0.00406852 0.0147595 -1.13506e-06 0.0147654)
(0.000890206 -8.27012e-05 -2.60346e-05 0.000890204 -4.4456e-10 0.00089021)
(0.000804835 -6.72073e-05 -6.72073e-05 0.000804833 -9.87258e-09 0.000804833)
(0.000821541 -6.11475e-05 -0.000106082 0.000821554 -1.57598e-08 0.000821525)
(0.000912829 -5.7617e-05 -0.000146917 0.00091286 -1.88437e-08 0.000912791)
(0.00106038 -5.60687e-05 -0.000193529 0.00106044 -1.68578e-08 0.00106032)
(0.00124972 -5.55749e-05 -0.000247441 0.0012498 -8.5072e-09 0.00124964)
(0.00146904 -5.53487e-05 -0.000308375 0.00146912 1.17362e-09 0.00146896)
(0.00170888 -5.49024e-05 -0.00037523 0.00170892 -1.20265e-09 0.00170883)
(0.00196179 -5.4007e-05 -0.000446677 0.00196176 -3.39395e-08 0.00196181)
(0.00222207 -5.26041e-05 -0.000521433 0.00222194 -1.14003e-07 0.00222218)
(0.0024854 -5.07368e-05 -0.000598356 0.00248516 -2.52757e-07 0.00248561)
(0.00274855 -4.85025e-05 -0.000676496 0.0027482 -4.54568e-07 0.00274885)
(0.00300922 -4.60156e-05 -0.000755091 0.00300879 -7.17396e-07 0.00300959)
(0.00326584 -4.33854e-05 -0.000833563 0.00326535 -1.03442e-06 0.00326625)
(0.00351742 -4.07087e-05 -0.000911487 0.00351689 -1.39597e-06 0.00351785)
(0.00376343 -3.80586e-05 -0.000988585 0.00376289 -1.79131e-06 0.00376385)
(0.00400368 -3.54874e-05 -0.00106468 0.00400315 -2.20996e-06 0.00400407)
(0.00423821 -3.30313e-05 -0.00113968 0.00423769 -2.64259e-06 0.00423854)
(0.00446718 -3.07092e-05 -0.00121356 0.0044667 -3.08149e-06 0.00446745)
(0.00469087 -2.85275e-05 -0.0012863 0.00469042 -3.52074e-06 0.00469106)
(0.00490955 -2.6488e-05 -0.00135792 0.00490913 -3.9561e-06 0.00490966)
(0.00512353 -2.45858e-05 -0.00142847 0.00512315 -4.38476e-06 0.00512355)
(0.00533305 -2.28123e-05 -0.00149797 0.00533271 -4.80506e-06 0.00533298)
(0.00553836 -2.11595e-05 -0.00156643 0.00553804 -5.21613e-06 0.00553819)
(0.00573963 -1.96184e-05 -0.00163389 0.00573934 -5.61769e-06 0.00573937)
(0.005937 -1.81788e-05 -0.00170035 0.00593674 -6.00959e-06 0.00593664)
(0.00613056 -1.68329e-05 -0.0017658 0.00613032 -6.39174e-06 0.00613009)
(0.00632036 -1.55734e-05 -0.00183023 0.00632014 -6.76368e-06 0.00631978)
(0.0065064 -1.43933e-05 -0.00189361 0.0065062 -7.12457e-06 0.0065057)
(0.00668866 -1.32853e-05 -0.0019559 0.00668849 -7.47282e-06 0.00668785)
(0.00686703 -1.22442e-05 -0.00201706 0.00686687 -7.80604e-06 0.0068661)
(0.00704133 -1.12643e-05 -0.00207698 0.0070412 -8.12087e-06 0.00704027)
(0.00721157 -1.03422e-05 -0.00213566 0.00721145 -8.41284e-06 0.00721038)
(0.00737741 -9.47395e-06 -0.00219294 0.00737731 -8.67598e-06 0.00737608)
(0.00753864 -8.65483e-06 -0.00224876 0.00753857 -8.90319e-06 0.00753718)
(0.00769495 -7.8795e-06 -0.00230299 0.0076949 -9.08573e-06 0.00769335)
(0.00784599 -7.14445e-06 -0.00235548 0.00784597 -9.21338e-06 0.00784424)
(0.00799143 -6.45269e-06 -0.00240611 0.00799144 -9.27454e-06 0.00798953)
(0.00813087 -5.79912e-06 -0.00245471 0.00813091 -9.25661e-06 0.00812882)
(0.00826377 -5.17895e-06 -0.0025011 0.00826384 -9.14587e-06 0.00826158)
(0.00838961 -4.59177e-06 -0.00254509 0.00838971 -8.9281e-06 0.00838727)
(0.00850785 -4.03531e-06 -0.00258644 0.00850798 -8.58922e-06 0.00850537)
(0.00861782 -3.5049e-06 -0.00262495 0.00861798 -8.11697e-06 0.0086152)
(0.00871879 -3.00051e-06 -0.00266034 0.00871897 -7.50097e-06 0.00871604)
(0.00880995 -2.51992e-06 -0.0026923 0.00881016 -6.7351e-06 0.00880709)
(0.00889024 -2.05589e-06 -0.00272051 0.00889048 -5.81708e-06 0.00888728)
(0.0089586 -1.603e-06 -0.00274454 0.00895885 -4.75104e-06 0.00895555)
(0.00901342 -1.15475e-06 -0.0027638 0.00901368 -3.54368e-06 0.0090103)
(0.00905277 -7.02486e-07 -0.00277764 0.00905304 -2.20817e-06 0.00904959)
(0.00907411 -2.36785e-07 -0.00278515 0.00907438 -7.55551e-07 0.00907091)
(0.00102293 -0.000131026 -2.41198e-05 0.00102292 3.34074e-09 0.00102294)
(0.000821541 -0.000106082 -6.11475e-05 0.000821525 -1.57598e-08 0.000821554)
(0.000755599 -9.78942e-05 -9.78942e-05 0.0007556 -2.9086e-08 0.0007556)
(0.000780832 -9.29623e-05 -0.000137166 0.000780852 -3.93333e-08 0.000780815)
(0.000869832 -9.03698e-05 -0.000181564 0.000869872 -4.47528e-08 0.000869796)
(0.0010042 -8.93442e-05 -0.000233148 0.00100425 -4.61074e-08 0.00100415)
(0.0011707 -8.8914e-05 -0.000292294 0.00117073 -5.26856e-08 0.00117069)
(0.00135941 -8.83028e-05 -0.000358132 0.00135938 -8.1965e-08 0.00135947)
(0.00156279 -8.70675e-05 -0.000429272 0.00156265 -1.52974e-07 0.00156297)
(0.00177506 -8.50444e-05 -0.000504254 0.00177478 -2.78589e-07 0.00177539)
(0.00199186 -8.22606e-05 -0.000581756 0.00199142 -4.62919e-07 0.00199234)
(0.00220995 -7.88482e-05 -0.000660672 0.00220937 -7.02866e-07 0.00221056)
(0.00242702 -7.4983e-05 -0.000740139 0.00242632 -9.91004e-07 0.00242773)
(0.0026415 -7.08422e-05 -0.000819513 0.00264071 -1.31819e-06 0.00264225)
(0.00285242 -6.65849e-05 -0.000898358 0.00285158 -1.67526e-06 0.00285318)
(0.00305927 -6.2337e-05 -0.00097636 0.00305842 -2.05386e-06 0.00306)
(0.00326184 -5.81946e-05 -0.00105339 0.00326101 -2.44686e-06 0.00326251)
(0.00346019 -5.4223e-05 -0.00112937 0.00345939 -2.84831e-06 0.00346076)
(0.00365448 -5.0448e-05 -0.00120427 0.00365373 -3.25346e-06 0.00365493)
(0.00384496 -4.68901e-05 -0.00127815 0.00384425 -3.65862e-06 0.00384527)
(0.00403189 -4.35599e-05 -0.00135103 0.00403124 -4.06108e-06 0.00403207)
(0.00421555 -4.04516e-05 -0.001423 0.00421495 -4.45894e-06 0.00421558)
(0.00439619 -3.7548e-05 -0.00149404 0.00439564 -4.85093e-06 0.00439606)
(0.004574 -3.48355e-05 -0.00156427 0.0045735 -5.23641e-06 0.00457372)
(0.00474917 -3.23113e-05 -0.00163369 0.00474871 -5.61493e-06 0.00474873)
(0.0049218 -2.9949e-05 -0.00170229 0.00492139 -5.98615e-06 0.00492121)
(0.00509201 -2.77378e-05 -0.00177015 0.00509163 -6.34981e-06 0.00509125)
(0.0052598 -2.56716e-05 -0.00183718 0.00525945 -6.70521e-06 0.00525887)
(0.00542518 -2.37335e-05 -0.0019034 0.00542487 -7.05143e-06 0.00542409)
(0.00558811 -2.19152e-05 -0.00196878 0.00558783 -7.38697e-06 0.00558686)
(0.0057485 -2.02018e-05 -0.00203326 0.00574825 -7.70933e-06 0.00574707)
(0.00590622 -1.85918e-05 -0.00209676 0.005906 -8.01523e-06 0.00590462)
(0.00606109 -1.70784e-05 -0.00215922 0.00606091 -8.3004e-06 0.0060593)
(0.00621289 -1.56491e-05 -0.00222049 0.00621274 -8.55901e-06 0.00621092)
(0.00636135 -1.42988e-05 -0.00228051 0.00636125 -8.78417e-06 0.0063592)
(0.00650616 -1.30221e-05 -0.0023391 0.0065061 -8.9673e-06 0.00650382)
(0.00664694 -1.18163e-05 -0.0023961 0.00664691 -9.09813e-06 0.00664441)
(0.0067833 -1.06772e-05 -0.00245137 0.00678332 -9.16521e-06 0.00678058)
(0.00691468 -9.59657e-06 -0.00250466 0.00691475 -9.15577e-06 0.00691177)
(0.00704066 -8.57291e-06 -0.00255579 0.00704078 -9.0558e-06 0.00703756)
(0.00716057 -7.60511e-06 -0.00260448 0.00716074 -8.8508e-06 0.00715728)
(0.00727375 -6.68514e-06 -0.00265047 0.00727397 -8.52629e-06 0.00727028)
(0.00737953 -5.80933e-06 -0.00269345 0.0073798 -8.06901e-06 0.00737588)
(0.00747703 -4.97636e-06 -0.00273311 0.00747735 -7.46789e-06 0.00747322)
(0.00756547 -4.17952e-06 -0.00276905 0.00756582 -6.71578e-06 0.00756151)
(0.00764356 -3.41058e-06 -0.00280084 0.00764396 -5.8093e-06 0.00763948)
(0.00771026 -2.66099e-06 -0.00282798 0.00771068 -4.75157e-06 0.00770606)
(0.00776381 -1.91713e-06 -0.00284977 0.00776425 -3.54871e-06 0.00775953)
(0.00780236 -1.16678e-06 -0.00286546 0.00780282 -2.21328e-06 0.00779802)
(0.00782323 -3.94434e-07 -0.00287398 0.00782369 -7.57409e-07 0.00781887)
(0.0012296 -0.000186697 -2.38537e-05 0.00122959 1.55593e-08 0.00122963)
(0.000912829 -0.000146917 -5.7617e-05 0.000912791 -1.88437e-08 0.00091286)
(0.000780832 -0.000137166 -9.29623e-05 0.000780815 -3.93333e-08 0.000780852)
(0.000769613 -0.00013593 -0.00013593 0.000769614 -5.34823e-08 0.000769614)
(0.000840081 -0.0001383 -0.000188359 0.000840095 -5.76759e-08 0.000840065)
(0.000967356 -0.000141814 -0.000250891 0.000967361 -5.07197e-08 0.000967344)
(0.00113469 -0.000145064 -0.00032333 0.00113464 -5.00269e-08 0.00113473)
(0.00133007 -0.000147108 -0.00040448 0.00132989 -8.91352e-08 0.00133021)
(0.00154446 -0.000147423 -0.000492529 0.00154409 -1.98641e-07 0.00154476)
(0.00177097 -0.000145872 -0.000585544 0.00177036 -3.9156e-07 0.00177145)
(0.00200432 -0.000142584 -0.000681742 0.00200347 -6.63375e-07 0.00200497)
(0.00224056 -0.000137853 -0.000779656 0.00223949 -9.99267e-07 0.00224134)
(0.00247684 -0.000132041 -0.000878144 0.00247559 -1.38142e-06 0.00247769)
(0.00271124 -0.000125505 -0.000976386 0.00270987 -1.79389e-06 0.00271209)
(0.00294253 -0.000118553 -0.00107383 0.00294109 -2.22482e-06 0.0029433)
(0.00317003 -0.000111451 -0.00117012 0.00316857 -2.66618e-06 0.00317067)
(0.00339347 -0.00010442 -0.0012651 0.00339204 -3.11312e-06 0.00339393)
(0.00361285 -9.7563e-05 -0.0013587 0.00361147 -3.56259e-06 0.0036131)
(0.00382832 -9.09863e-05 -0.00145096 0.00382701 -4.01268e-06 0.00382832)
(0.00404013 -8.47427e-05 -0.00154192 0.00403891 -4.46184e-06 0.00403988)
(0.00424858 -7.88505e-05 -0.00163166 0.00424745 -4.90891e-06 0.00424807)
(0.00445395 -7.33117e-05 -0.00172029 0.00445291 -5.35284e-06 0.00445318)
(0.00465649 -6.81156e-05 -0.00180785 0.00465554 -5.79272e-06 0.00465547)
(0.00485645 -6.32552e-05 -0.00189446 0.00485557 -6.22777e-06 0.00485518)
(0.00505397 -5.86957e-05 -0.00198013 0.00505317 -6.65733e-06 0.00505247)
(0.00524922 -5.44341e-05 -0.0020649 0.00524849 -7.08066e-06 0.00524749)
(0.00544226 -5.0437e-05 -0.00214883 0.00544159 -7.49713e-06 0.00544031)
(0.00563312 -4.66837e-05 -0.00223186 0.00563251 -7.90558e-06 0.00563097)
(0.00582179 -4.31621e-05 -0.00231403 0.00582124 -8.30471e-06 0.00581943)
(0.00600821 -3.98528e-05 -0.00239524 0.00600772 -8.69229e-06 0.00600566)
(0.00619224 -3.67437e-05 -0.00247546 0.00619181 -9.06577e-06 0.00618951)
(0.00637375 -3.38108e-05 -0.00255463 0.00637337 -9.4209e-06 0.00637083)
(0.00655249 -3.10466e-05 -0.00263259 0.00655217 -9.75283e-06 0.00654939)
(0.00672818 -2.84445e-05 -0.00270925 0.00672792 -1.00551e-05 0.0067249)
(0.00690048 -2.59845e-05 -0.00278443 0.00690029 -1.03192e-05 0.00689703)
(0.00706905 -2.3655e-05 -0.002858 0.00706893 -1.05356e-05 0.00706542)
(0.00723328 -2.14573e-05 -0.0029297 0.00723324 -1.0692e-05 0.00722948)
(0.00739277 -1.93785e-05 -0.00299934 0.00739282 -1.07751e-05 0.00738881)
(0.00754693 -1.74115e-05 -0.00306659 0.00754707 -1.07697e-05 0.0075428)
(0.00769503 -1.55508e-05 -0.00313125 0.00769525 -1.06593e-05 0.00769073)
(0.00783631 -1.37836e-05 -0.00319291 0.00783663 -1.04263e-05 0.00783185)
(0.00796993 -1.21105e-05 -0.0032512 0.00797034 -1.00531e-05 0.00796532)
(0.00809502 -1.05237e-05 -0.0033058 0.00809552 -9.52369e-06 0.00809026)
(0.00821057 -9.00992e-06 -0.00335622 0.00821115 -8.8239e-06 0.00820568)
(0.00831545 -7.5644e-06 -0.00340197 0.00831611 -7.94441e-06 0.00831044)
(0.00840826 -6.173e-06 -0.00344251 0.00840899 -6.88035e-06 0.00840315)
(0.00848754 -4.81403e-06 -0.00347707 0.00848832 -5.63404e-06 0.00848234)
(0.00855128 -3.46821e-06 -0.00350489 0.0085521 -4.2123e-06 0.00854602)
(0.00859715 -2.11116e-06 -0.00352489 0.00859799 -2.62885e-06 0.00859186)
(0.00862202 -7.13239e-07 -0.00353575 0.00862287 -8.99539e-07 0.00861671)
(0.00150054 -0.000252531 -2.43454e-05 0.00150052 4.33461e-08 0.00150058)
(0.00106038 -0.000193529 -5.60687e-05 0.00106032 -1.68578e-08 0.00106044)
(0.000869832 -0.000181564 -9.03698e-05 0.000869796 -4.47528e-08 0.000869872)
(0.000840081 -0.000188359 -0.0001383 0.000840065 -5.76759e-08 0.000840095)
(0.00091731 -0.000204112 -0.000204112 0.000917305 -4.789e-08 0.000917305)
(0.00106732 -0.0002213 -0.000287008 0.00106728 -9.46544e-10 0.00106734)
(0.00126748 -0.000235979 -0.000384435 0.0012673 6.35364e-08 0.0012676)
(0.00150202 -0.00024644 -0.000493412 0.00150157 8.08617e-08 0.00150235)
(0.0017594 -0.000252151 -0.000610857 0.00175858 -1.28304e-08 0.00176)
(0.00203098 -0.000253258 -0.000733912 0.00202975 -2.4077e-07 0.00203189)
(0.00231028 -0.000250313 -0.000860125 0.00230866 -5.88642e-07 0.0023115)
(0.00259256 -0.000244061 -0.000987554 0.00259059 -1.02402e-06 0.00259401)
(0.00287442 -0.000235312 -0.00111477 0.00287218 -1.51229e-06 0.00287604)
(0.00315361 -0.000224821 -0.00124081 0.00315118 -2.02578e-06 0.00315531)
(0.00342873 -0.000213229 -0.00136504 0.00342621 -2.54678e-06 0.00343042)
(0.00369903 -0.000201101 -0.00148718 0.00369649 -3.06658e-06 0.00370065)
(0.00396424 -0.000188834 -0.00160706 0.00396175 -3.58246e-06 0.00396573)
(0.00422437 -0.000176738 -0.00172467 0.00422198 -4.09508e-06 0.00422571)
(0.00447967 -0.000165017 -0.00184015 0.0044774 -4.60606e-06 0.00448082)
(0.00473044 -0.000153773 -0.00195359 0.00472831 -5.11692e-06 0.0047314)
(0.00497703 -0.000143094 -0.00206519 0.00497506 -5.62838e-06 0.00497781)
(0.00521982 -0.000133018 -0.00217499 0.005218 -6.14036e-06 0.00522043)
(0.00545912 -0.000123531 -0.00228327 0.00545744 -6.65218e-06 0.00545958)
(0.0056952 -0.000114616 -0.00239004 0.00569366 -7.1627e-06 0.00569554)
(0.0059283 -0.000106261 -0.00249546 0.0059269 -7.67052e-06 0.00592854)
(0.00615858 -9.84271e-05 -0.00259959 0.00615729 -8.17407e-06 0.00615875)
(0.00638614 -9.10704e-05 -0.00270238 0.00638497 -8.67159e-06 0.00638627)
(0.00661104 -8.41769e-05 -0.00280399 0.00660998 -9.16116e-06 0.00661114)
(0.00683329 -7.77103e-05 -0.00290435 0.00683233 -9.64053e-06 0.00683338)
(0.00705278 -7.16344e-05 -0.00300343 0.00705193 -1.01069e-05 0.00705289)
(0.00726941 -6.5922e-05 -0.00310116 0.00726865 -1.05562e-05 0.00726954)
(0.00748296 -6.0552e-05 -0.00319743 0.00748231 -1.09841e-05 0.00748313)
(0.00769325 -5.55044e-05 -0.00329221 0.0076927 -1.13841e-05 0.00769346)
(0.00789993 -5.07499e-05 -0.00338531 0.00789949 -1.17492e-05 0.00790018)
(0.00810261 -4.62705e-05 -0.00347653 0.00810229 -1.20693e-05 0.00810291)
(0.00830075 -4.20501e-05 -0.00356568 0.00830056 -1.23331e-05 0.00830109)
(0.00849389 -3.80692e-05 -0.00365256 0.00849384 -1.2527e-05 0.00849427)
(0.00868136 -3.43102e-05 -0.00373684 0.00868145 -1.26347e-05 0.00868178)
(0.00886257 -3.07681e-05 -0.00381824 0.00886281 -1.26388e-05 0.00886302)
(0.00903658 -2.74277e-05 -0.00389636 0.00903698 -1.25195e-05 0.00903704)
(0.00920258 -2.42676e-05 -0.00397088 0.00920315 -1.22561e-05 0.00920307)
(0.00935966 -2.12863e-05 -0.00404134 0.00936039 -1.18282e-05 0.00936015)
(0.0095066 -1.84665e-05 -0.00410726 0.0095075 -1.12156e-05 0.0095071)
(0.00964235 -1.57906e-05 -0.00416811 0.0096434 -1.04021e-05 0.00964286)
(0.0097655 -1.32415e-05 -0.00422331 0.00976669 -9.37463e-06 0.00976602)
(0.00987452 -1.07898e-05 -0.00427218 0.00987583 -8.12739e-06 0.00987505)
(0.00996755 -8.40769e-06 -0.00431386 0.00996895 -6.66169e-06 0.0099681)
(0.0100424 -6.05376e-06 -0.00434741 0.0100439 -4.98517e-06 0.010043)
(0.0100962 -3.6817e-06 -0.0043715 0.0100977 -3.11297e-06 0.0100968)
(0.0101254 -1.24349e-06 -0.00438455 0.010127 -1.06512e-06 0.010126)
(0.00182336 -0.000328874 -2.50423e-05 0.00182333 9.2237e-08 0.00182342)
(0.00124972 -0.000247441 -5.55749e-05 0.00124964 -8.5072e-09 0.0012498)
(0.0010042 -0.000233148 -8.93442e-05 0.00100415 -4.61074e-08 0.00100425)
(0.000967356 -0.000250891 -0.000141814 0.000967344 -5.07197e-08 0.000967361)
(0.00106732 -0.000287008 -0.0002213 0.00106734 -9.46544e-10 0.00106728)
(0.00125766 -0.000327232 -0.000327232 0.00125764 1.52269e-07 0.00125764)
(0.00150756 -0.000362582 -0.00045429 0.00150731 4.0782e-07 0.00150775)
(0.00179611 -0.000389168 -0.000596486 0.00179539 6.61652e-07 0.00179676)
(0.00210871 -0.000406021 -0.000748543 0.00210732 7.84396e-07 0.00210997)
(0.00243493 -0.00041365 -0.000906143 0.00243283 7.14802e-07 0.0024369)
(0.00276736 -0.000413233 -0.00106599 0.00276459 4.61843e-07 0.00277003)
(0.00310078 -0.000406262 -0.00122565 0.00309745 6.91795e-08 0.00310407)
(0.00343164 -0.00039427 -0.00138349 0.00342789 -4.12498e-07 0.00343545)
(0.00375768 -0.000378646 -0.00153841 0.00375366 -9.41124e-07 0.00376192)
(0.00407761 -0.00036061 -0.00168992 0.00407345 -1.48935e-06 0.00408216)
(0.0043908 -0.000341166 -0.00183776 0.00438663 -2.04387e-06 0.00439557)
(0.00469713 -0.000321086 -0.00198189 0.00469303 -2.6011e-06 0.00470203)
(0.00499678 -0.000300945 -0.00212253 0.00499282 -3.16293e-06 0.00500176)
(0.00529011 -0.000281193 -0.00225977 0.00528635 -3.73284e-06 0.00529513)
(0.00557756 -0.000262103 -0.00239395 0.00557403 -4.31381e-06 0.0055826)
(0.00585964 -0.000243813 -0.00252536 0.00585635 -4.90723e-06 0.00586469)
(0.00613679 -0.000226447 -0.00265415 0.00613374 -5.51272e-06 0.00614185)
(0.00640943 -0.000210049 -0.00278058 0.00640663 -6.12854e-06 0.00641452)
(0.00667795 -0.000194607 -0.00290487 0.00667537 -6.75175e-06 0.00668308)
(0.00694259 -0.000180096 -0.00302716 0.00694023 -7.379e-06 0.00694778)
(0.00720356 -0.000166468 -0.00314753 0.00720141 -8.00645e-06 0.00720883)
(0.00746113 -0.000153694 -0.00326606 0.00745917 -8.63026e-06 0.00746649)
(0.0077153 -0.000141742 -0.00338291 0.00771352 -9.24679e-06 0.00772077)
(0.00796607 -0.000130526 -0.00349802 0.00796447 -9.85179e-06 0.00797166)
(0.00821351 -0.000120009 -0.00361136 0.00821207 -1.0441e-05 0.00821922)
(0.00845734 -0.000110154 -0.00372297 0.00845607 -1.10094e-05 0.00846319)
(0.00869757 -0.000100915 -0.00383277 0.00869648 -1.15515e-05 0.00870355)
(0.00893381 -9.22472e-05 -0.00394062 0.00893289 -1.20594e-05 0.0089399)
(0.00916571 -8.41161e-05 -0.00404635 0.00916498 -1.2525e-05 0.00917191)
(0.00939301 -7.64823e-05 -0.00414983 0.00939248 -1.29378e-05 0.00939931)
(0.00961505 -6.9308e-05 -0.00425085 0.00961473 -1.32849e-05 0.00962143)
(0.00983128 -6.25774e-05 -0.00434911 0.00983119 -1.35514e-05 0.00983772)
(0.0100411 -5.62517e-05 -0.00444435 0.0100412 -1.37203e-05 0.0100475)
(0.0102436 -5.03059e-05 -0.00453624 0.010244 -1.37704e-05 0.0102501)
(0.0104381 -4.47284e-05 -0.00462439 0.0104388 -1.36813e-05 0.0104446)
(0.0106235 -3.94831e-05 -0.00470835 0.0106244 -1.34299e-05 0.0106299)
(0.0107988 -3.4551e-05 -0.00478771 0.0108 -1.29928e-05 0.0108052)
(0.0109628 -2.99089e-05 -0.00486186 0.0109643 -1.23474e-05 0.0109691)
(0.0111141 -2.55182e-05 -0.00493034 0.0111158 -1.14753e-05 0.0111204)
(0.0112514 -2.13597e-05 -0.00499236 0.0112534 -1.03618e-05 0.0112577)
(0.0113729 -1.73813e-05 -0.00504722 0.011375 -8.99874e-06 0.0113791)
(0.0114765 -1.35266e-05 -0.00509403 0.0114788 -7.3871e-06 0.0114827)
(0.0115599 -9.73109e-06 -0.00513161 0.0115623 -5.5352e-06 0.011566)
(0.0116197 -5.91209e-06 -0.00515869 0.0116222 -3.46008e-06 0.0116259)
(0.0116522 -1.99402e-06 -0.00517331 0.0116548 -1.18439e-06 0.0116584)
(0.00218576 -0.000414842 -2.56209e-05 0.00218575 1.58229e-07 0.00218583)
(0.00146904 -0.000308375 -5.53487e-05 0.00146896 1.17362e-09 0.00146912)
(0.0011707 -0.000292294 -8.8914e-05 0.00117069 -5.26856e-08 0.00117073)
(0.00113469 -0.00032333 -0.000145064 0.00113473 -5.00269e-08 0.00113464)
(0.00126748 -0.000384435 -0.000235979 0.0012676 6.35364e-08 0.0012673)
(0.00150756 -0.00045429 -0.000362582 0.00150775 4.0782e-07 0.00150731)
(0.00181402 -0.000517579 -0.000517579 0.00181403 1.02191e-06 0.00181403)
(0.00216003 -0.000567145 -0.000691753 0.00215939 1.74884e-06 0.00216076)
(0.00252796 -0.000601061 -0.00087713 0.00252628 2.36351e-06 0.00252979)
(0.00290606 -0.000620006 -0.0010677 0.0029032 2.74168e-06 0.00290918)
(0.00328659 -0.00062581 -0.00125917 0.00328261 2.86716e-06 0.00329098)
(0.00366445 -0.000620713 -0.00144869 0.00365955 2.77628e-06 0.00366998)
(0.00403646 -0.000606981 -0.00163443 0.00403085 2.52188e-06 0.00404294)
(0.00440076 -0.000586787 -0.00181534 0.00439467 2.15402e-06 0.00440799)
(0.0047564 -0.000561999 -0.0019909 0.00475005 1.7097e-06 0.00476419)
(0.0051031 -0.000534144 -0.002161 0.00509668 1.21097e-06 0.00511129)
(0.00544102 -0.000504585 -0.00232583 0.00543467 6.6786e-07 0.00544947)
(0.00577059 -0.000474286 -0.00248567 0.00576443 8.30688e-08 0.00577917)
(0.00609234 -0.000443997 -0.00264086 0.00608644 -5.437e-07 0.00610096)
(0.00640691 -0.000414332 -0.00279177 0.00640134 -1.21247e-06 0.00641551)
(0.0067149 -0.000385596 -0.00293877 0.00670968 -1.92168e-06 0.00672342)
(0.00701695 -0.000358059 -0.00308232 0.00701209 -2.66756e-06 0.00702536)
(0.00731353 -0.000331892 -0.00322263 0.00730905 -3.44452e-06 0.00732182)
(0.00760506 -0.000307121 -0.00336003 0.00760093 -4.24549e-06 0.00761321)
(0.00789193 -0.000283757 -0.0034947 0.00788814 -5.06287e-06 0.00789993)
(0.00817453 -0.000261777 -0.00362688 0.00817107 -5.88901e-06 0.00818239)
(0.00845295 -0.000241171 -0.00375671 0.0084498 -6.71573e-06 0.00846066)
(0.00872736 -0.000221872 -0.00388428 0.00872451 -7.53644e-06 0.00873493)
(0.00899785 -0.000203778 -0.00400965 0.00899528 -8.344e-06 0.00900527)
(0.00926441 -0.000186856 -0.00413288 0.00926211 -9.13094e-06 0.00927168)
(0.0095269 -0.000171036 -0.00425391 0.00952488 -9.89163e-06 0.00953401)
(0.00978527 -0.000156232 -0.00437279 0.00978353 -1.06177e-05 0.0097922)
(0.0100392 -0.000142385 -0.00448933 0.0100377 -1.13015e-05 0.0100459)
(0.0102883 -0.000129434 -0.0046035 0.0102871 -1.19322e-05 0.0102948)
(0.0105322 -0.000117333 -0.00471505 0.0105314 -1.24996e-05 0.0105386)
(0.0107705 -0.000106015 -0.00482381 0.01077 -1.29902e-05 0.0107765)
(0.0110024 -9.54294e-05 -0.00492955 0.0110022 -1.33887e-05 0.0110082)
(0.0112273 -8.55276e-05 -0.00503189 0.0112274 -1.36765e-05 0.0112327)
(0.0114443 -7.62715e-05 -0.00513058 0.0114449 -1.38326e-05 0.0114494)
(0.0116526 -6.76197e-05 -0.00522521 0.0116536 -1.38349e-05 0.0116574)
(0.0118512 -5.95255e-05 -0.00531524 0.0118526 -1.36599e-05 0.0118556)
(0.0120389 -5.19556e-05 -0.00540034 0.0120407 -1.32823e-05 0.0120429)
(0.0122145 -4.48667e-05 -0.00547981 0.0122167 -1.26789e-05 0.0122181)
(0.0123765 -3.82056e-05 -0.0055531 0.012379 -1.18291e-05 0.0123797)
(0.0125233 -3.19106e-05 -0.00561956 0.0125262 -1.07176e-05 0.0125262)
(0.0126532 -2.59176e-05 -0.00567825 0.0126565 -9.33489e-06 0.0126559)
(0.0127641 -2.01374e-05 -0.00572838 0.0127676 -7.68222e-06 0.0127665)
(0.0128532 -1.44702e-05 -0.00576853 0.0128568 -5.76782e-06 0.0128554)
(0.0129172 -8.78793e-06 -0.00579746 0.0129209 -3.61149e-06 0.0129193)
(0.0129519 -2.96187e-06 -0.00581315 0.0129557 -1.23745e-06 0.012954)
(0.00257678 -0.00050903 -2.59171e-05 0.00257681 2.23218e-07 0.00257683)
(0.00170888 -0.00037523 -5.49024e-05 0.00170883 -1.20265e-09 0.00170892)
(0.00135941 -0.000358132 -8.83028e-05 0.00135947 -8.1965e-08 0.00135938)
(0.00133007 -0.00040448 -0.000147108 0.00133021 -8.91352e-08 0.00132989)
(0.00150202 -0.000493412 -0.00024644 0.00150235 8.08617e-08 0.00150157)
(0.00179611 -0.000596486 -0.000389168 0.00179676 6.61652e-07 0.00179539)
(0.00216003 -0.000691753 -0.000567145 0.00216076 1.74884e-06 0.00215939)
(0.00256086 -0.000768371 -0.000768371 0.00256097 3.09613e-06 0.00256097)
(0.00297843 -0.000823316 -0.000982174 0.0029772 4.35284e-06 0.00297995)
(0.00340046 -0.000857489 -0.00120076 0.00339752 5.33809e-06 0.00340378)
(0.00381959 -0.000873278 -0.00141899 0.0038149 6.02633e-06 0.00382476)
(0.00423143 -0.000873598 -0.00163359 0.0042252 6.44786e-06 0.00423827)
(0.00463357 -0.000861333 -0.00184261 0.0046261 6.64358e-06 0.00464177)
(0.00502482 -0.000839127 -0.00204508 0.00501647 6.65227e-06 0.00503405)
(0.00540485 -0.000809401 -0.00224049 0.00539594 6.50572e-06 0.00541477)
(0.00577383 -0.000774309 -0.00242893 0.00576464 6.22625e-06 0.00578416)
(0.00613228 -0.000735611 -0.00261061 0.00612305 5.82756e-06 0.00614277)
(0.00648087 -0.00069471 -0.00278588 0.0064718 5.31777e-06 0.00649135)
(0.00682042 -0.000652859 -0.00295528 0.00681165 4.70237e-06 0.00683073)
(0.00715165 -0.000610979 -0.00311928 0.00714328 3.98728e-06 0.00716167)
(0.00747535 -0.00056978 -0.00327825 0.00746745 3.18052e-06 0.007485)
(0.00779232 -0.000529763 -0.00343284 0.00778493 2.29206e-06 0.00780155)
(0.00810304 -0.000491269 -0.00358337 0.00809617 1.33451e-06 0.0081118)
(0.00840809 -0.000454523 -0.00373017 0.00840174 3.21551e-07 0.00841637)
(0.00870795 -0.000419638 -0.00387353 0.00870212 -7.32048e-07 0.00871573)
(0.00900296 -0.000386682 -0.00401383 0.00899761 -1.8126e-06 0.00901023)
(0.00929337 -0.000355656 -0.0041513 0.0092885 -2.906e-06 0.00930013)
(0.00957938 -0.000326547 -0.00428593 0.00957497 -3.99994e-06 0.00958564)
(0.00986114 -0.000299251 -0.00441801 0.00985717 -5.08202e-06 0.00986689)
(0.0101387 -0.000273707 -0.00454756 0.0101352 -6.14211e-06 0.0101439)
(0.0104119 -0.000249848 -0.00467451 0.0104088 -7.16891e-06 0.0104167)
(0.0106808 -0.000227587 -0.00479902 0.0106781 -8.15348e-06 0.010685)
(0.0109449 -0.000206817 -0.00492093 0.0109426 -9.08558e-06 0.0109485)
(0.011204 -0.000187457 -0.00504018 0.0112022 -9.95339e-06 0.0112072)
(0.0114578 -0.000169403 -0.00515668 0.0114564 -1.07455e-05 0.0114604)
(0.0117056 -0.000152589 -0.00527013 0.0117048 -1.14481e-05 0.0117076)
(0.0119469 -0.000136939 -0.00538034 0.0119466 -1.20455e-05 0.0119483)
(0.012181 -0.00012236 -0.00548699 0.0121811 -1.25178e-05 0.0121817)
(0.0124069 -0.000108794 -0.00558975 0.0124076 -1.28464e-05 0.0124069)
(0.0126238 -9.61694e-05 -0.00568827 0.0126251 -1.30075e-05 0.0126232)
(0.0128305 -8.4428e-05 -0.00578202 0.0128324 -1.29763e-05 0.0128292)
(0.013026 -7.35005e-05 -0.0058706 0.0130284 -1.27304e-05 0.013024)
(0.0132089 -6.33014e-05 -0.00595328 0.0132119 -1.2245e-05 0.0132062)
(0.0133776 -5.37722e-05 -0.00602955 0.0133812 -1.1498e-05 0.0133744)
(0.0135306 -4.48226e-05 -0.00609861 0.0135347 -1.0474e-05 0.0135268)
(0.013666 -3.63437e-05 -0.00615969 0.0136705 -9.16565e-06 0.0136617)
(0.0137814 -2.81953e-05 -0.00621178 0.0137863 -7.57075e-06 0.0137767)
(0.0138742 -2.02312e-05 -0.00625367 0.0138793 -5.70089e-06 0.0138692)
(0.0139408 -1.22801e-05 -0.00628368 0.0139461 -3.5776e-06 0.0139356)
(0.013977 -4.13844e-06 -0.00629996 0.0139824 -1.22727e-06 0.0139717)
(0.00298722 -0.000609877 -2.5871e-05 0.00298732 2.57627e-07 0.00298724)
(0.00196179 -0.000446677 -5.4007e-05 0.00196181 -3.39395e-08 0.00196176)
(0.00156279 -0.000429272 -8.70675e-05 0.00156297 -1.52974e-07 0.00156265)
(0.00154446 -0.000492529 -0.000147423 0.00154476 -1.98641e-07 0.00154409)