/*--------------------------------*- C++ -*----------------------------------*\
| =========                 |                                                 |
| \\      /  F ield         | OpenFOAM: The Open Source CFD Toolbox           |
|  \\    /   O peration     | Version:  v1912                                 |
|   \\  /    A nd           | Website:  www.openfoam.com                      |
|    \\/     M anipulation  |                                                 |
\*---------------------------------------------------------------------------*/
FoamFile
{
    version     2.0;
    format      ascii;
    class       volTensorField;
    location    "2000";
    object      grad(U);
}
// * * * * * * * * * * * * * * * * * * * * * * * * * * * * * * * * * * * * * //

dimensions      [0 0 -1 0 0 0 0];


internalField   nonuniform List<tensor> 
2500
(
(0 0 0 0.531188 -5.31653e-06 -1.17809e-05 0.531188 -1.1781e-05 -5.31648e-06)
(-1.60729e-18 1.22627e-23 4.90507e-23 0.422391 -2.79479e-05 -1.80426e-05 1.34189 2.52381e-05 1.83661e-05)
(0 0 0 0.395282 -9.60615e-05 -2.80204e-05 2.1476 -2.67471e-05 6.02362e-05)
(0 0 1.73621e-22 0.378335 -0.000192757 -3.88156e-05 2.96161 -0.000208059 0.0001272)
(0 0 0 0.365179 -0.000310884 -5.9107e-05 3.78858 -0.000591523 0.000197805)
(0 0 0 0.352403 -0.000403901 -9.27309e-05 4.62881 -0.00120663 0.000215831)
(9.47168e-18 0 0 0.338374 -0.000413001 -0.000136687 5.47964 -0.00195627 0.000113526)
(0 0 0 0.322578 -0.00030286 -0.000182203 6.3366 -0.00260254 -0.000153544)
(0 0 0 0.305147 -8.01589e-05 -0.00022023 7.19434 -0.00282986 -0.000582726)
(0 0 0 0.286534 0.000213729 -0.00024618 8.04737 -0.0023444 -0.00113235)
(0 0 0 0.267273 0.000524702 -0.000260063 8.89064 -0.000949725 -0.00174535)
(0 0 0 0.247906 0.000805273 -0.000264525 9.71987 0.00142295 -0.00237012)
(0 -3.2047e-21 6.4094e-21 0.228904 0.00102468 -0.000262907 10.5318 0.0047235 -0.00297166)
(0 -1.20586e-20 6.02929e-21 0.210647 0.00117045 -0.000258065 11.3241 0.00881529 -0.00353379)
(-2.32313e-17 0 0 0.193393 0.00124468 -0.000251904 12.0955 0.013515 -0.00405541)
(2.18536e-17 2.13414e-20 -1.06707e-20 0.177281 0.00125842 -0.000245434 12.8453 0.0186283 -0.00454483)
(0 -4.01514e-20 0 0.162404 0.0012265 -0.000239054 13.5736 0.0239752 -0.00501442)
(-3.86767e-17 -3.77702e-20 3.77702e-20 0.148753 0.00116384 -0.000232813 14.281 0.0294052 -0.00547685)
(0 0 0 0.136277 0.00108336 -0.000226591 14.9681 0.0348029 -0.00594284)
(-1.71126e-17 -6.68461e-20 1.67115e-20 0.124904 0.000995108 -0.000220241 15.636 0.0400878 -0.00642028)
(0 0 0 0.114537 0.000906142 -0.00021366 16.2856 0.0452089 -0.00691412)
(0 -5.91525e-20 2.95762e-20 0.105094 0.000820969 -0.000206776 16.9177 0.0501396 -0.00742683)
(0 0 0 0.0964741 0.000742029 -0.000199572 17.5333 0.0548714 -0.00795884)
(0 0 0 0.0885893 0.000670367 -0.000192064 18.133 0.059406 -0.0085092)
(0 0 0 0.0813675 0.000605882 -0.000184288 18.7174 0.0637527 -0.00907593)
(0 -9.26395e-20 4.63198e-20 0.0747327 0.000547906 -0.000176304 19.2871 0.0679214 -0.00965652)
(6.69277e-17 1.74291e-19 -4.35727e-20 0.068622 0.000495506 -0.000168157 19.8423 0.0719212 -0.0102481)
(0 0 0 0.0629825 0.000447437 -0.000159909 20.3832 0.0757562 -0.0108478)
(3.94831e-17 0 -3.85577e-20 0.0577708 0.000402614 -0.000151612 20.91 0.0794237 -0.0114525)
(-3.71415e-17 0 3.6271e-20 0.052945 0.000359835 -0.00014331 21.4226 0.0829132 -0.0120593)
(0 0 0 0.048468 0.000318057 -0.000135038 21.921 0.0862032 -0.0126654)
(3.28667e-17 0 0 0.0443023 0.000276415 -0.000126831 22.4049 0.0892616 -0.0132678)
(0 0 0 0.040426 0.000234068 -0.000118716 22.874 0.092043 -0.013864)
(0 0 0 0.0368135 0.000190404 -0.000110715 23.3279 0.0944887 -0.0144511)
(0 0 0 0.0334408 0.000144923 -0.000102847 23.7661 0.0965258 -0.0150268)
(-2.57365e-17 -2.01067e-19 5.02666e-20 0.0302881 9.72992e-05 -9.51239e-05 24.188 0.0980661 -0.0155883)
(0 -1.89142e-19 4.72855e-20 0.0273364 4.74626e-05 -8.75639e-05 24.5932 0.0990072 -0.0161333)
(0 0 8.89624e-20 0.0245765 -4.32751e-06 -8.01799e-05 24.9806 0.0992346 -0.0166595)
(0 1.67373e-19 0 0.0219867 -5.78114e-05 -7.29739e-05 25.3494 0.0986256 -0.0171647)
(8.06127e-17 1.57447e-19 -7.87233e-20 0.019554 -0.000112575 -6.59585e-05 25.6986 0.0970463 -0.0176465)
(0 -1.48109e-19 0 0.0172712 -0.000167761 -5.91431e-05 26.0274 0.0943597 -0.0181031)
(-3.56673e-17 0 0 0.0151239 -0.000222125 -5.25269e-05 26.3345 0.0904332 -0.0185324)
(0 0 0 0.013099 -0.000274321 -4.61084e-05 26.6187 0.0851527 -0.0189329)
(3.15622e-17 0 -6.16449e-20 0.0111849 -0.000322651 -3.98762e-05 26.8782 0.0784242 -0.0193024)
(-5.93807e-17 -1.15978e-19 0 0.00936361 -0.000365524 -3.3797e-05 27.1115 0.0702003 -0.019639)
(0 0 0 0.00761875 -0.000401388 -2.78266e-05 27.3163 0.0604659 -0.0199393)
(0 0 0 0.00592595 -0.000429441 -2.18929e-05 27.4899 0.0492749 -0.0201991)
(0 -4.82714e-20 4.82714e-20 0.00425693 -0.000449431 -1.59106e-05 27.6287 0.0366943 -0.0204113)
(0 0 0 0.00258056 -0.00046214 -9.05316e-06 27.7281 0.0228488 -0.0205671)
(0 0 0 0.000867726 -0.000469284 -2.60318e-06 27.7816 0.00781914 -0.0206189)
(1.60729e-18 -4.90507e-23 -1.22627e-23 1.34189 1.83661e-05 2.52381e-05 0.422391 -1.80426e-05 -2.79479e-05)
(0 0 0 1.1196 1.78268e-05 8.22496e-05 1.1196 8.22496e-05 1.78268e-05)
(1.70676e-17 0 3.47242e-22 1.05804 -0.000107229 0.00012843 1.83564 0.000144398 0.00013793)
(1.07036e-17 -6.53297e-22 6.53297e-22 1.00653 -0.00027474 0.000159293 2.56679 0.000170155 0.000328289)
(-1.00688e-17 2.45821e-21 0 0.958141 -0.000470384 0.000135723 3.3075 0.000152613 0.000549744)
(3.78867e-17 0 2.31242e-21 0.910063 -0.000604495 3.73329e-05 4.05242 0.000101889 0.000700715)
(-1.78199e-17 4.35056e-21 -2.17528e-21 0.860842 -0.000560983 -0.000115116 4.79678 9.58202e-05 0.000667158)
(0 0 0 0.810006 -0.000274045 -0.000271128 5.53649 0.000286005 0.000390343)
(-3.15379e-17 7.69967e-21 0 0.757779 0.000234714 -0.000382659 6.26779 0.000852994 -0.000100476)
(-5.9335e-17 0 1.81076e-21 0.704871 0.000874937 -0.000428906 6.98731 0.00194616 -0.000710707)
(-2.7908e-17 0 0 0.652233 0.00153411 -0.000416132 7.69212 0.00364883 -0.00132592)
(-2.62529e-17 -6.4094e-21 0 0.600839 0.00211607 -0.000364842 8.37993 0.00597123 -0.00184904)
(0 0 0 0.551517 0.00256009 -0.00029747 9.04907 0.00886083 -0.00221887)
(4.64627e-17 0 0 0.504906 0.00284321 -0.000231176 9.69853 0.0122218 -0.00241213)
(-4.37072e-17 0 1.06707e-20 0.461407 0.00297218 -0.000175767 10.3279 0.0159364 -0.00243506)
(0 0 -1.00379e-20 0.421234 0.00297195 -0.000134734 10.9371 0.0198833 -0.00231188)
(7.73534e-17 1.51081e-19 -1.88851e-20 0.38443 0.00287493 -0.000107434 11.5268 0.0239512 -0.00207416)
(-3.63829e-17 -1.42121e-19 8.88255e-21 0.350872 0.00271351 -9.11943e-05 12.0975 0.0280466 -0.00175336)
(0 0 0 0.320384 0.00251578 -8.27901e-05 12.6502 0.0320973 -0.00137645)
(0 -1.25763e-19 0 0.292736 0.0023033 -7.92875e-05 13.1855 0.0360517 -0.000964271)
(0 0 0 0.267653 0.00209126 -7.83856e-05 13.7046 0.0398772 -0.000531414)
(0 0 0 0.244881 0.0018895 -7.84844e-05 14.2082 0.0435561 -8.70698e-05)
(0 -4.18754e-19 1.30861e-20 0.224174 0.00170312 -7.85782e-05 14.697 0.0470816 0.000363672)
(5.04217e-17 1.9696e-19 -1.231e-20 0.205307 0.00153409 -7.81118e-05 15.1718 0.050455 0.00081884)
(-4.74314e-17 -1.85279e-19 0 0.188076 0.0013823 -7.68427e-05 15.6328 0.053681 0.00127827)
(0 0 0 0.172296 0.00124609 -7.47434e-05 16.0807 0.0567664 0.00174307)
(0 0 0 0.157818 0.0011231 -7.18861e-05 16.5159 0.0597165 0.00221479)
(0 0 0 0.144502 0.00101059 -6.83981e-05 16.9384 0.0625334 0.00269508)
(0 2.90168e-19 0 0.13223 0.000905816 -6.44325e-05 17.3484 0.0652149 0.00318551)
(6.98776e-17 0 -3.41199e-20 0.120898 0.000806164 -6.01284e-05 17.746 0.0677518 0.00368733)
(0 0 0 0.110425 0.000709203 -5.56147e-05 18.131 0.0701291 0.00420131)
(0 -2.41543e-19 3.01929e-20 0.100712 0.00061274 -5.10064e-05 18.5037 0.0723215 0.00472779)
(-1.74504e-16 -4.54436e-19 2.84023e-20 0.0916823 0.000514906 -4.63942e-05 18.8636 0.0742958 0.00526662)
(-1.09436e-16 -4.27486e-19 2.67179e-20 0.0832975 0.000414233 -4.18561e-05 19.2105 0.0760073 0.00581711)
(0 0 0 0.0755043 0.000309519 -3.74575e-05 19.5441 0.0774013 0.00637799)
(9.68408e-17 3.78284e-19 0 0.0682668 0.000199997 -3.32548e-05 19.8644 0.078411 0.00694741)
(0 0 0 0.0614994 8.54718e-05 -2.93041e-05 20.1706 0.078959 0.00752273)
(0 0 0 0.0551597 -3.36384e-05 -2.56247e-05 20.4623 0.078958 0.00810055)
(0 0 0 0.0492459 -0.000156671 -2.22291e-05 20.7389 0.078313 0.00867698)
(0 0 0 0.0437211 -0.000282604 -1.91527e-05 21.0001 0.0769221 0.00924746)
(-1.42669e-16 -5.57301e-19 3.48313e-20 0.0385535 -0.000409591 -1.6418e-05 21.2451 0.0746797 0.00980633)
(-1.34208e-16 -5.2425e-19 6.55313e-20 0.033714 -0.00053481 -1.4034e-05 21.4731 0.0714833 0.010347)
(-1.26249e-16 -4.93159e-19 3.08224e-20 0.0291539 -0.000655084 -1.19871e-05 21.6833 0.067243 0.0108619)
(0 0 0 0.024853 -0.000766542 -1.02448e-05 21.8748 0.0618851 0.0113429)
(0 4.36399e-19 0 0.0207865 -0.000865598 -8.74015e-06 22.0466 0.0553686 0.0117812)
(0 0 0 0.0168899 -0.000948631 -7.38887e-06 22.1969 0.0476788 0.0121682)
(0 0 0 0.0131226 -0.00101371 -6.0601e-06 22.3243 0.0388503 0.0124951)
(-9.29969e-17 0 4.54087e-20 0.00942635 -0.00106021 -4.6378e-06 22.4258 0.0289321 0.0127542)
(0 8.54313e-20 0 0.00571451 -0.0010899 -1.9347e-06 22.4984 0.0180155 0.0129375)
(1.64587e-16 6.02735e-20 -4.01824e-20 0.00192092 -0.00110655 1.49037e-08 22.5374 0.00616351 0.01303)
(0 0 0 2.1476 6.02362e-05 -2.6747e-05 0.395282 -2.80203e-05 -9.60617e-05)
(-1.70676e-17 -3.47242e-22 -8.68105e-23 1.83564 0.00013793 0.000144398 1.05804 0.00012843 -0.000107229)
(2.14072e-17 0 0 1.75732 -8.97981e-06 0.000261289 1.75732 0.000261289 -8.97981e-06)
(0 0 0 1.68198 -0.000178882 0.000323731 2.48186 0.000388894 0.000155417)
(0 5.78106e-22 -2.31242e-21 1.60335 -0.000358575 0.000250249 3.22153 0.000545271 0.000322053)
(0 0 0 1.52021 -0.000438231 -1.53616e-06 3.96738 0.000787947 0.00035976)
(0 0 0 1.4332 -0.00026833 -0.000368231 4.71184 0.00121932 0.000119128)
(0 0 0 1.34347 0.000228302 -0.000720607 5.44912 0.00196884 -0.000455417)
(0 0 -3.62152e-21 1.25236 0.00100544 -0.000947864 6.17489 0.00314786 -0.00128776)
(0 -3.40674e-21 6.81348e-21 1.16135 0.00192865 -0.00100967 6.88611 0.00481084 -0.00222417)
(0 0 0 1.07192 0.0028447 -0.000929201 7.58054 0.00695388 -0.00310285)
(-9.87838e-17 -2.41171e-20 2.41171e-20 0.98547 0.00363014 -0.000760616 8.25661 0.00953172 -0.00379849)
(0 0 -2.26869e-20 0.903144 0.00421132 -0.000560046 8.91349 0.0124751 -0.00423957)
(0 0 0 0.825775 0.00456411 -0.000369413 9.55054 0.015704 -0.00440607)
(-8.22301e-17 -1.60606e-19 0 0.753872 0.00470206 -0.000212074 10.1677 0.0191367 -0.00431633)
(0 0 0 0.687655 0.00466154 -9.57686e-05 10.7654 0.022696 -0.00401112)
(0 0 1.77651e-20 0.627049 0.00448791 -1.81283e-05 11.3438 0.0263129 -0.0035397)
(-1.36901e-16 -2.67384e-19 3.3423e-20 0.571894 0.00422604 2.81947e-05 11.9038 0.0299294 -0.00295018)
(0 0 0 0.521822 0.00391469 5.18405e-05 12.4463 0.0334992 -0.0022839)
(0 0 0 0.476378 0.00358404 6.06718e-05 12.9717 0.0369878 -0.00157312)
(-1.1396e-16 0 0 0.4352 0.00325564 6.09006e-05 13.4809 0.040372 -0.000841117)
(1.07201e-16 0 0 0.397811 0.00294302 5.69153e-05 13.9746 0.0436374 -0.000103189)
(0 0 0 0.363829 0.00265372 5.15704e-05 14.4534 0.0467771 0.000631579)
(0 0 0 0.332836 0.00239069 4.65132e-05 14.9179 0.0497895 0.00135874)
(-1.78474e-16 -3.48582e-19 2.17864e-20 0.304533 0.0021536 4.25502e-05 15.3684 0.052676 0.0020769)
(-1.67889e-16 0 2.04943e-20 0.278698 0.0019402 3.99596e-05 15.8054 0.0554391 0.00278658)
(0 -6.16924e-19 1.92789e-20 0.254958 0.00174699 3.86893e-05 16.229 0.0580807 0.00348942)
(0 0 0 0.233113 0.00156992 3.85399e-05 16.6395 0.0606005 0.00418739)
(0 0 0 0.213022 0.00140482 3.92512e-05 17.0371 0.0629943 0.00488259)
(0 0 0 0.194467 0.00124773 4.05417e-05 17.4216 0.065253 0.00557684)
(-1.2367e-16 0 0 0.177363 0.0010949 4.21541e-05 17.793 0.0673614 0.00627157)
(0 -4.54436e-19 2.84023e-20 0.161535 0.000942946 4.38791e-05 18.1511 0.0692965 0.00696777)
(0 0 0 0.146823 0.00078897 4.55329e-05 18.4962 0.0710274 0.00766592)
(-1.02946e-16 0 0 0.133181 0.000630558 4.69601e-05 18.8277 0.0725139 0.00836589)
(-9.68408e-17 -7.56568e-19 0 0.12054 0.000465873 4.80438e-05 19.1456 0.0737053 0.00906698)
(0 0 1.11203e-20 0.108781 0.000293658 4.86701e-05 19.4494 0.0745408 0.00976781)
(0 0 0 0.0978135 0.000113509 4.87303e-05 19.7387 0.0749494 0.0104661)
(0 0 0 0.0875982 -7.39987e-05 4.81867e-05 20.0134 0.07485 0.0111585)
(0 0 0 0.0780921 -0.000267822 4.7042e-05 20.2732 0.0741551 0.0118412)
(0 5.57301e-19 -8.70783e-21 0.0692296 -0.000466354 4.52421e-05 20.5173 0.0727693 0.0125097)
(0 5.2425e-19 0 0.0609343 -0.000666718 4.27281e-05 20.7455 0.0705948 0.0131584)
(0 -4.93159e-19 0 0.0531833 -0.000864524 3.94977e-05 20.9571 0.0675356 0.0137799)
(0 4.63912e-19 0 0.0459281 -0.00105477 3.55954e-05 21.1513 0.063506 0.0143661)
(0 0 0 0.0391153 -0.00123141 3.1103e-05 21.3278 0.0584352 0.014908)
(2.10185e-16 0 -3.20717e-21 0.0326668 -0.00138873 2.6172e-05 21.4856 0.052281 0.0153962)
(0 0 0 0.0265278 -0.00152103 2.09941e-05 21.6233 0.0450264 0.0158214)
(0 0 0 0.0205996 -0.00162517 1.5843e-05 21.7398 0.0366973 0.0161754)
(0 1.70863e-19 -1.33486e-21 0.014774 -0.00169993 1.09332e-05 21.8324 0.0273364 0.0164521)
(0 0 0 0.00894681 -0.00174795 6.73022e-06 21.8985 0.0170237 0.0166459)
(0 0 0 0.00300558 -0.00177464 2.45776e-06 21.9339 0.00582248 0.0167182)
(0 0 0 2.96161 0.0001272 -0.000208059 0.378335 -3.88156e-05 -0.000192757)
(-1.07036e-17 -6.53297e-22 6.53297e-22 2.56679 0.000328289 0.000170155 1.00653 0.000159293 -0.00027474)
(2.01377e-17 0 0 2.48186 0.000155417 0.000388894 1.68198 0.000323731 -0.000178882)
(0 0 0 2.38429 -6.07516e-06 0.000470076 2.38429 0.000470076 -6.07516e-06)
(0 0 0 2.27328 -0.000115585 0.000318622 3.09618 0.000632782 0.000128501)
(0 -1.02314e-21 -4.09255e-21 2.15131 -4.11473e-05 -0.000127157 3.80615 0.00090125 9.37407e-05)
(0 -9.62459e-22 0 2.02179 0.000366571 -0.000749368 4.50653 0.00145237 -0.000245574)
(5.9335e-17 3.62152e-21 0 1.88831 0.00114969 -0.00130581 5.19222 0.0024564 -0.000913569)
(5.5816e-17 0 0 1.75404 0.00220694 -0.00160901 5.86024 0.00397881 -0.00178314)
(0 0 0 1.62157 0.00335775 -0.00161392 6.50907 0.0059719 -0.00266462)
(-9.87838e-17 0 2.41171e-20 1.49298 0.00442908 -0.00138309 7.13811 0.00833206 -0.00339032)
(0 0 0 1.37004 0.00529906 -0.00102086 7.74745 0.0109505 -0.00384973)
(0 0 0 1.25392 0.00590579 -0.000625682 8.33741 0.0137371 -0.00399383)
(0 0 0 1.14538 0.00623888 -0.000266998 8.90862 0.0166256 -0.00382484)
(-7.73534e-17 0 0 1.04495 0.00632428 1.88788e-05 9.46152 0.0195693 -0.00337997)
(-1.45532e-16 1.42121e-19 3.55302e-20 0.952659 0.00620813 0.000222287 9.99682 0.0225355 -0.00271531)
(1.36901e-16 2.67384e-19 -3.3423e-20 0.868354 0.00594351 0.000350346 10.5152 0.0254982 -0.00189263)
(0 0 0 0.791718 0.00558159 0.000418067 11.0172 0.0284363 -0.000970408)
(0 0 0 0.722031 0.0051661 0.000442273 11.5033 0.0313314 1.40627e-06)
(0 -4.45155e-19 0 0.658774 0.00473116 0.000438034 11.9744 0.0341673 0.0009836)
(0 0 1.30861e-20 0.601477 0.00430124 0.000417254 12.4307 0.036931 0.00194751)
(3.0253e-16 1.18176e-18 -3.693e-20 0.549375 0.0038922 0.000388467 12.8728 0.0396125 0.00287409)
(-1.89726e-16 -7.41116e-19 2.31599e-20 0.501963 0.00351275 0.000357276 13.3012 0.0422051 0.00375202)
(0 0 0 0.458797 0.00316645 0.000327023 13.7161 0.044704 0.00457587)
(0 0 0 0.419358 0.002853 0.000299428 14.118 0.0471066 0.00534451)
(0 0 0 0.383262 0.00256962 0.000275174 14.5069 0.0494114 0.0060596)
(0 -5.80336e-19 0 0.350171 0.00231211 0.000254312 14.8829 0.051616 0.00672461)
(1.39755e-16 5.45919e-19 4.26499e-21 0.319781 0.00207542 0.000236549 15.2464 0.0537175 0.00734401)
(0 0 8.0241e-21 0.291795 0.00185432 0.000221437 15.5974 0.0557101 0.00792265)
(1.2367e-16 0 7.54822e-21 0.265975 0.00164377 0.000208489 15.9357 0.0575853 0.0084655)
(0 0 0 0.242143 0.00143886 0.000197237 16.2615 0.0593273 0.00897734)
(0 0 0 0.220128 0.00123522 0.000187262 16.5742 0.0609181 0.00946267)
(0 0 0 0.199761 0.00102906 0.000178196 16.8743 0.0623308 0.00992557)
(1.93682e-16 7.56568e-19 4.72855e-20 0.180886 0.000817102 0.000169725 17.1615 0.0635316 0.0103696)
(0 0 0 0.163387 0.000596814 0.000161586 17.4355 0.0644779 0.0107979)
(0 0 0 0.147139 0.000366542 0.000153519 17.696 0.0651186 0.0112129)
(1.61225e-16 0 0 0.132048 0.000125602 0.00014526 17.9431 0.0653944 0.0116159)
(-1.51664e-16 -1.18487e-18 -7.40545e-20 0.118045 -0.000125303 0.000136669 18.1765 0.0652353 0.0120072)
(0 0 0 0.10502 -0.000384838 0.000127741 18.3959 0.0645689 0.0123865)
(0 0 0 0.0929012 -0.000650862 0.000118341 18.601 0.0633109 0.0127532)
(0 0 0 0.0816293 -0.000919497 0.000108281 18.7916 0.0613804 0.0131049)
(-2.37523e-16 0 0 0.0711056 -0.00118501 9.74955e-05 18.9675 0.0586934 0.0134377)
(0 0 0 0.0612966 -0.00144075 8.60101e-05 19.1285 0.0551758 0.0137464)
(0 0 0 0.052124 -0.00167862 7.39301e-05 19.2737 0.0507645 0.0140251)
(-1.9772e-16 -1.15851e-18 -4.82714e-20 0.0434656 -0.00189092 6.14811e-05 19.4031 0.0454202 0.0142678)
(1.85994e-16 0 4.54087e-20 0.035251 -0.00207002 4.89789e-05 19.5156 0.039125 0.014469)
(0 0 0 0.0273408 -0.00221157 3.68814e-05 19.6102 0.0318963 0.0146258)
(0 3.21459e-19 8.03647e-20 0.0195923 -0.00231376 2.55364e-05 19.6855 0.0237676 0.014739)
(-1.54826e-16 -1.51197e-19 -7.55986e-20 0.0118602 -0.00237971 1.4236e-05 19.739 0.0148027 0.0148122)
(0 7.11152e-20 0 0.0039826 -0.00241596 4.20367e-06 19.7677 0.00506107 0.0148232)
(0 0 0 3.78858 0.000197805 -0.000591523 0.365179 -5.9107e-05 -0.000310884)
(-1.00688e-17 0 2.45821e-21 3.3075 0.000549744 0.000152613 0.958141 0.000135723 -0.000470384)
(0 -2.31242e-21 5.78106e-22 3.22153 0.000322053 0.000545271 1.60335 0.000250249 -0.000358575)
(0 0 -1.08764e-21 3.09618 0.000128501 0.000632782 2.27328 0.000318622 -0.000115585)
(0 0 0 2.94087 4.13581e-05 0.000347816 2.94087 0.000347816 4.13581e-05)
(6.30757e-17 0 0 2.76806 0.000276967 -0.000326576 3.59001 0.000346331 -9.59298e-05)
(0 0 0 2.58665 0.00101511 -0.00120052 4.21402 0.000514046 -0.000650532)
(-1.11632e-16 -1.3627e-20 6.81348e-21 2.403 0.00219813 -0.0019207 4.81123 0.00114388 -0.00157337)
(-1.05012e-16 0 1.28188e-20 2.22177 0.00358997 -0.00223642 5.38239 0.00236212 -0.0026611)
(-9.87838e-17 -4.82343e-20 2.41171e-20 2.04615 0.00494212 -0.00212374 5.92931 0.00408165 -0.00369781)
(0 0 0 1.87844 0.00608702 -0.0017029 6.45418 0.00613181 -0.00453709)
(-1.74829e-16 -8.53655e-20 4.26828e-20 1.72017 0.00694041 -0.00113203 6.95936 0.00835846 -0.00510591)
(8.22301e-17 0 -4.01514e-20 1.57226 0.00747929 -0.000546791 7.44681 0.0106568 -0.00538627)
(0 0 0 1.43511 0.00772189 -3.70076e-05 7.91837 0.0129694 -0.00539784)
(0 0 0 1.30876 0.0077111 0.000354015 8.37516 0.015273 -0.00518314)
(0 0 0 1.1931 0.0075006 0.000618449 8.81829 0.0175628 -0.00479591)
(-1.28782e-16 -2.51527e-19 6.28817e-20 1.08747 0.00714577 0.000770201 9.24865 0.0198408 -0.00429232)
(0 0 0 0.991299 0.00669775 0.000833079 9.66637 0.0221088 -0.0037248)
(0 0 0 0.904047 0.00619938 0.000832715 10.0719 0.0243649 -0.00313848)
(0 -8.37509e-19 0 0.824719 0.00568435 0.000791875 10.4659 0.0266036 -0.00256919)
(0 0 0 0.752655 0.00517727 0.000728573 10.8482 0.0288166 -0.0020433)
(0 0 0 0.68718 0.00469419 0.000655833 11.2191 0.0309941 -0.00157833)
(-1.78474e-16 -6.97163e-19 -6.80824e-22 0.627493 0.00424423 0.000582247 11.5788 0.0331264 -0.00118419)
(-1.67889e-16 -6.55817e-19 -5.12357e-21 0.573061 0.00383126 0.000512982 11.9273 0.0352045 -0.000864668)
(-1.57932e-16 -6.16924e-19 -9.63943e-21 0.523325 0.00345521 0.000450709 12.2645 0.0372201 -0.000618906)
(0 0 1.81355e-20 0.477787 0.00311323 0.000396439 12.5907 0.0391663 -0.000442686)
(0 0 0 0.436009 0.00280079 0.000350158 12.9059 0.0410367 -0.000329555)
(-2.62934e-16 0 0 0.397659 0.00251247 0.000311266 13.2099 0.0428243 -0.00027169)
(-2.4734e-16 -9.66173e-19 0 0.362357 0.00224257 0.000278901 13.5025 0.0445219 -0.000260563)
(0 0 0 0.329788 0.00198483 0.000252104 13.7841 0.0461183 -0.000287401)
(0 8.54971e-19 0 0.299758 0.00173389 0.00022994 14.0543 0.0476019 -0.000343538)
(0 0 0 0.272033 0.00148486 0.000211549 14.313 0.0489557 -0.000420645)
(-1.93682e-16 7.56568e-19 -4.72855e-20 0.246429 0.0012328 0.00019615 14.5601 0.0501586 -0.000510911)
(0 0 -4.44812e-20 0.222716 0.000973887 0.000183057 14.7955 0.051183 -0.000607149)
(0 0 0 0.200765 0.000705072 0.000171664 15.0191 0.0519957 -0.000702959)
(0 0 0 0.180448 0.000424343 0.000161397 15.2308 0.0525566 -0.000792864)
(3.03327e-16 1.18487e-18 7.40545e-20 0.16162 0.000130588 0.000151661 15.4303 0.0528189 -0.000872574)
(0 0 0 0.144158 -0.000175288 0.000142086 15.6179 0.052726 -0.000939565)
(0 0 0 0.127977 -0.000491857 0.000132549 15.793 0.0522196 -0.000991959)
(-5.04995e-16 -9.86318e-19 -1.2329e-19 0.112974 -0.000816459 0.00012272 15.9559 0.0512336 -0.00102892)
(-2.37523e-16 0 0 0.0990481 -0.00114429 0.000112181 16.1064 0.0497014 -0.00105168)
(0 0 0 0.0861422 -0.0014687 0.000100739 16.2444 0.0475557 -0.0010635)
(-4.2037e-16 -8.21035e-19 -1.02629e-19 0.0741117 -0.0017815 8.83473e-05 16.3699 0.0447356 -0.00106906)
(1.9772e-16 0 9.65429e-20 0.0628918 -0.00207298 7.51192e-05 16.4826 0.0411895 -0.00107429)
(-3.71988e-16 0 -9.08173e-20 0.0523738 -0.00233365 6.1389e-05 16.5824 0.036881 -0.00108502)
(0 0 -8.54313e-20 0.0424115 -0.00255423 4.76677e-05 16.6688 0.0317948 -0.00110597)
(3.29174e-16 6.42918e-19 0 0.0328611 -0.00272923 3.47094e-05 16.7412 0.0259402 -0.00113845)
(-3.09652e-16 3.02394e-19 0 0.0235351 -0.00285629 2.31501e-05 16.7985 0.0193432 -0.00117845)
(0 0 0 0.0142306 -0.00293866 1.1928e-05 16.8391 0.0120519 -0.0012169)
(0 0 0 0.00477746 -0.0029834 3.04698e-06 16.861 0.00411993 -0.00123683)
(0 0 0 4.62881 0.000215831 -0.00120663 0.352403 -9.27309e-05 -0.000403901)
(-1.89434e-17 0 0 4.05242 0.000700715 0.000101889 0.910063 3.73329e-05 -0.000604495)
(0 0 0 3.96738 0.00035976 0.000787947 1.52021 -1.53616e-06 -0.000438231)
(0 4.09255e-21 1.02314e-21 3.80615 9.37407e-05 0.00090125 2.15131 -0.000127157 -4.11473e-05)
(6.30757e-17 0 0 3.59001 -9.59298e-05 0.000346331 2.76806 -0.000326576 0.000276967)
(0 0 0 3.34858 9.50808e-05 -0.000773584 3.34858 -0.000773584 9.50808e-05)
(1.11632e-16 1.02202e-20 -1.70337e-21 3.10166 0.0010408 -0.00205926 3.88623 -0.00141571 -0.00082888)
(0 0 0 2.85978 0.00265503 -0.00298912 4.38326 -0.00185703 -0.00235436)
(0 0 0 2.62827 0.00448032 -0.00328672 4.84525 -0.00177323 -0.00410133)
(9.29253e-17 0 0 2.40971 0.00611454 -0.00301181 5.27855 -0.00113413 -0.00574097)
(0 8.53655e-20 0 2.20535 0.00737766 -0.00237531 5.68861 -7.1738e-05 -0.00710703)
(1.6446e-16 8.03028e-20 0 2.01576 0.00823666 -0.00159076 6.08031 0.00126403 -0.00815429)
(1.54707e-16 0 0 1.84074 0.00872277 -0.000820496 6.45731 0.00276055 -0.00889773)
(-2.91063e-16 -2.84242e-19 1.42121e-19 1.67974 0.00889214 -0.00016475 6.82241 0.00435109 -0.00937714)
(1.36901e-16 2.67384e-19 -6.68461e-20 1.53224 0.00880804 0.000331705 7.17762 0.00600485 -0.00964073)
(0 0 0 1.39761 0.00853183 0.00066447 7.52435 0.00771202 -0.00973739)
(0 -4.7322e-19 0 1.27478 0.00811947 0.000853418 7.86331 0.00947266 -0.00971345)
(0 0 0 1.16289 0.00761927 0.000929225 8.19497 0.0112863 -0.0096103)
(0 -4.18754e-19 0 1.06113 0.00707118 0.000924371 8.51935 0.0131493 -0.00946387)
(0 0 0 0.968511 0.00650676 0.000867807 8.83631 0.0150535 -0.00930311)
(0 0 0 0.884187 0.00594923 0.000782645 9.146 0.0169861 -0.00915047)
(1.78474e-16 0 -4.35727e-20 0.807348 0.00541452 0.000685837 9.44794 0.0189321 -0.00902156)
(1.67889e-16 0 -2.04943e-20 0.737228 0.00491223 0.000588804 9.74202 0.0208755 -0.00892627)
(-3.15865e-16 0 1.92789e-20 0.673099 0.00444682 0.000498526 10.0281 0.0228005 -0.00886934)
(-2.97132e-16 -5.80336e-19 9.06775e-21 0.614393 0.0040189 0.000418692 10.3058 0.0246928 -0.00885137)
(0 0 0 0.56063 0.00362635 0.000350744 10.575 0.0265379 -0.00886979)
(0 0 0 0.511253 0.00326505 0.000294678 10.8353 0.0283259 -0.00891973)
(-2.4734e-16 -9.66173e-19 0 0.46579 0.00292965 0.000249641 11.0867 0.0300452 -0.00899473)
(0 0 0 0.42398 0.00261394 0.000214354 11.3286 0.0316845 -0.00908744)
(0 -8.54971e-19 -6.67946e-21 0.385465 0.00231207 0.000187377 11.5613 0.0332325 -0.00919006)
(0 0 0 0.349901 0.0020182 0.000167269 11.7842 0.0346788 -0.00929479)
(0 0 0 0.317054 0.00172652 0.000152677 11.9975 0.0360079 -0.00939416)
(0 0 0 0.286736 0.00143202 0.000142367 12.2005 0.037202 -0.00948121)
(0 0 0 0.258729 0.00113018 0.00013524 12.3933 0.0382399 -0.0095498)
(-3.22451e-16 0 0 0.232815 0.000817607 0.000130317 12.576 0.0390976 -0.00959471)
(0 0 0 0.208838 0.000491916 0.000126681 12.748 0.0397421 -0.00961193)
(0 1.1146e-18 3.48313e-20 0.18669 0.000151573 0.000123407 12.9097 0.0401387 -0.00959892)
(-2.68416e-16 -2.097e-18 -3.27656e-20 0.166202 -0.000202622 0.00011989 13.0607 0.0402449 -0.00955495)
(0 0 0 0.147235 -0.000568778 0.000115846 13.2013 0.0400118 -0.00948074)
(0 0 0 0.129726 -0.000944078 0.000110763 13.3311 0.0393933 -0.00937864)
(0 0 0 0.113513 -0.00132316 0.000104048 13.4505 0.0383334 -0.00925318)
(0 -8.21035e-19 -5.13147e-20 0.0985033 -0.00169832 9.54029e-05 13.5592 0.0367823 -0.00911138)
(-3.9544e-16 0 -4.82714e-20 0.0846058 -0.0020603 8.47719e-05 13.6575 0.0346891 -0.00896212)
(0 0 0 0.0716743 -0.00239814 7.23542e-05 13.7454 0.0320145 -0.00881583)
(0 0 0 0.0595885 -0.00270092 5.86818e-05 13.8227 0.0287277 -0.00868309)
(0 6.42918e-19 8.03647e-20 0.0481934 -0.00295778 4.45976e-05 13.8892 0.0248142 -0.00857349)
(3.09652e-16 6.04789e-19 3.77993e-20 0.0372882 -0.00316237 3.13019e-05 13.9447 0.0202793 -0.00849299)
(2.91288e-16 2.84461e-19 0 0.0266744 -0.00331171 1.98439e-05 13.9885 0.0151434 -0.00844217)
(-2.74013e-16 -2.6759e-19 0 0.0161268 -0.00340899 1.02538e-05 14.0194 0.00944466 -0.00841634)
(5.15524e-16 1.2586e-19 6.29302e-20 0.00541501 -0.00346131 2.92361e-06 14.036 0.00322947 -0.00837824)
(9.47168e-18 0 0 5.47964 0.000113526 -0.00195627 0.338374 -0.000136687 -0.000413001)
(1.78199e-17 2.17528e-21 -8.70113e-21 4.79678 0.000667158 9.58202e-05 0.860842 -0.000115116 -0.000560983)
(0 0 0 4.71184 0.000119128 0.00121932 1.4332 -0.000368231 -0.00026833)
(0 0 0 4.50653 -0.000245574 0.00145237 2.02179 -0.000749368 0.000366571)
(0 0 0 4.21402 -0.000650532 0.000514046 2.58665 -0.00120052 0.00101511)
(-1.11632e-16 1.70337e-21 -1.02202e-20 3.88623 -0.00082888 -0.00141571 3.10166 -0.00205926 0.0010408)
(0 0 0 3.55938 -4.37833e-05 -0.00350535 3.55938 -0.00350535 -4.37833e-05)
(0 0 0 3.25058 0.00182834 -0.00483425 3.96477 -0.00516962 -0.00209236)
(0 0 0 2.96565 0.00413999 -0.00508099 4.32768 -0.00655856 -0.00451988)
(0 0 0 2.70502 0.00623212 -0.00450233 4.65793 -0.00743588 -0.00679242)
(1.6446e-16 8.03028e-20 -8.03028e-20 2.46747 0.00782153 -0.00350165 4.96428 -0.00777939 -0.00864135)
(3.09413e-16 2.26621e-19 -7.55404e-20 2.2513 0.00887962 -0.00238969 5.2536 -0.00765625 -0.0100113)
(0 0 0 2.05455 0.00947465 -0.00135718 5.53086 -0.00715638 -0.0109509)
(0 0 0 1.87548 0.00969893 -0.000503078 5.80018 -0.00636037 -0.0115405)
(-1.28782e-16 -2.51527e-19 0 1.71247 0.00964071 0.000138039 6.06409 -0.0053284 -0.0118585)
(0 0 0 1.56413 0.00937564 0.000572784 6.32417 -0.00410138 -0.0119713)
(0 0 0 1.42887 0.00896544 0.000830596 6.58139 -0.00270679 -0.0119328)
(-4.28805e-16 -4.18754e-19 2.09377e-19 1.30552 0.00845992 0.000949974 6.83633 -0.00116659 -0.0117856)
(0 0 0 1.19306 0.00789901 0.000969856 7.08885 0.000499538 -0.0115635)
(0 0 0 1.0904 0.00731372 0.000924558 7.33864 0.00227069 -0.0112933)
(-1.78474e-16 0 8.71454e-20 0.996628 0.00672756 0.000841543 7.58546 0.00412456 -0.0109958)
(0 0 0 0.910855 0.00615727 0.00074129 7.82867 0.00603802 -0.0106865)
(0 0 0 0.832336 0.00561368 0.000637798 8.0677 0.00798751 -0.0103763)
(0 0 0 0.760326 0.0051029 0.000540009 8.30212 0.0099503 -0.0100724)
(0 0 6.82399e-20 0.694223 0.00462675 0.000452939 8.53148 0.0119054 -0.00977858)
(2.62934e-16 1.02709e-18 -3.20964e-20 0.633467 0.00418479 0.000378851 8.75503 0.0138332 -0.00949634)
(0 0 0 0.577538 0.00377411 0.00031818 8.97218 0.0157177 -0.00922466)
(0 0 0 0.52602 0.00338946 0.000270225 9.18284 0.017543 -0.00896117)
(0 0 0 0.47852 0.00302562 0.000233666 9.38636 0.0192948 -0.00870231)
(-4.11784e-16 -1.60853e-18 2.51333e-20 0.434699 0.00267702 0.000206889 9.58228 0.0209619 -0.00844372)
(3.87363e-16 7.56568e-19 -4.72855e-20 0.394237 0.00233766 0.000188197 9.77027 0.022529 -0.00818074)
(0 -1.4234e-18 0 0.356855 0.0020015 0.000175952 9.95012 0.0239847 -0.00790859)
(0 0 -2.09216e-20 0.322314 0.00166304 0.000168619 10.1216 0.0253135 -0.00762276)
(0 0 0 0.290424 0.00131806 0.0001648 10.2842 0.0264976 -0.00731926)
(-3.03327e-16 0 1.85136e-20 0.260942 0.000962267 0.000163238 10.4378 0.027518 -0.00699486)
(0 0 0 0.233709 0.000592896 0.000162739 10.5824 0.0283512 -0.00664744)
(-8.05248e-16 -3.1455e-18 8.19141e-21 0.208557 0.000208585 0.000162129 10.7179 0.0289682 -0.00627617)
(0 0 0 0.185333 -0.000190558 0.000160584 10.844 0.0293399 -0.00588201)
(4.75045e-16 9.27823e-19 -1.81215e-21 0.163893 -0.000602208 0.00015767 10.9608 0.0294262 -0.00546785)
(0 0 0 0.144123 -0.00102326 0.000152746 11.0684 0.0291924 -0.00503802)
(0 0 0 0.125872 -0.00144812 0.000145075 11.1666 0.0285982 -0.00459919)
(0 0 1.20679e-20 0.109029 -0.00186847 0.000134285 11.2559 0.0276025 -0.00416067)
(3.71988e-16 0 2.27043e-20 0.0934834 -0.00227416 0.000120328 11.336 0.026166 -0.0037339)
(0 -1.3669e-18 0 0.0790634 -0.00265296 0.00010353 11.4071 0.0242586 -0.00333213)
(0 0 0 0.0656231 -0.00299309 8.46627e-05 11.4695 0.0218548 -0.00296885)
(0 0 3.77993e-20 0.0529884 -0.0032825 6.49385e-05 11.5228 0.0189431 -0.00265687)
(0 0 3.55576e-20 0.0409589 -0.00351382 4.60459e-05 11.5671 0.0155267 -0.0024055)
(0 0 0 0.0292762 -0.00368351 2.94836e-05 11.6019 0.0116215 -0.00221903)
(-5.15524e-16 -2.51721e-19 -3.14651e-20 0.0176783 -0.00379461 1.67642e-05 11.6264 0.00726061 -0.00209672)
(0 0 0 0.00593664 -0.00385398 5.80416e-06 11.6394 0.00248446 -0.00201019)
(0 0 0 6.3366 -0.000153544 -0.00260254 0.322578 -0.000182203 -0.00030286)
(0 0 -8.1851e-21 5.53649 0.000390343 0.000286005 0.810006 -0.000271128 -0.000274045)
(0 0 0 5.44912 -0.000455417 0.00196884 1.34347 -0.000720607 0.000228302)
(5.9335e-17 0 3.62152e-21 5.19222 -0.000913569 0.0024564 1.88831 -0.00130581 0.00114969)