/*--------------------------------*- C++ -*----------------------------------*\
| =========                 |                                                 |
| \\      /  F ield         | OpenFOAM: The Open Source CFD Toolbox           |
|  \\    /   O peration     | Version:  v1912                                 |
|   \\  /    A nd           | Website:  www.openfoam.com                      |
|    \\/     M anipulation  |                                                 |
\*---------------------------------------------------------------------------*/
FoamFile
{
    version     2.0;
    format      ascii;
    class       volScalarField;
    location    "2000";
    object      nut;
}
// * * * * * * * * * * * * * * * * * * * * * * * * * * * * * * * * * * * * * //

dimensions      [0 2 -1 0 0 0 0];


internalField   nonuniform List<scalar> 
2500
(
6.50516e-05
6.16656e-05
6.10408e-05
6.30665e-05
6.66815e-05
7.10739e-05
7.57294e-05
8.0354e-05
8.47936e-05
8.8976e-05
9.28757e-05
9.6492e-05
9.98375e-05
0.000102931
0.000105795
0.000108452
0.000110924
0.00011323
0.00011539
0.000117418
0.00011933
0.000121138
0.000122851
0.000124479
0.000126029
0.000127508
0.00012892
0.000130271
0.000131563
0.0001328
0.000133985
0.000135119
0.000136204
0.000137241
0.000138231
0.000139175
0.000140072
0.000140922
0.000141725
0.00014248
0.000143185
0.00014384
0.000144443
0.000144991
0.000145481
0.000145909
0.000146271
0.00014656
0.000146766
0.000146876
6.16656e-05
6.00534e-05
5.78124e-05
5.72582e-05
5.85318e-05
6.10795e-05
6.43069e-05
6.77931e-05
7.12853e-05
7.46462e-05
7.78099e-05
8.07515e-05
8.34696e-05
8.59755e-05
8.82868e-05
9.04236e-05
9.24061e-05
9.42537e-05
9.59838e-05
9.76118e-05
9.91508e-05
0.000100612
0.000102006
0.000103339
0.000104618
0.00010585
0.000107038
0.000108186
0.000109297
0.000110373
0.000111416
0.000112427
0.000113408
0.000114358
0.000115278
0.000116166
0.000117022
0.000117845
0.000118633
0.000119383
0.000120094
0.000120761
0.000121382
0.000121952
0.000122467
0.000122921
0.000123306
0.000123615
0.000123837
0.000123956
6.10408e-05
5.78124e-05
5.57251e-05
5.52859e-05
5.6379e-05
5.87871e-05
6.20566e-05
6.57479e-05
6.9546e-05
7.32574e-05
7.67761e-05
8.00535e-05
8.30768e-05
8.58537e-05
8.84037e-05
9.07515e-05
9.29231e-05
9.49436e-05
9.68361e-05
9.86206e-05
0.000100314
0.000101932
0.000103486
0.000104986
0.00010644
0.000107854
0.000109235
0.000110585
0.00011191
0.00011321
0.000114489
0.000115745
0.000116981
0.000118195
0.000119387
0.000120554
0.000121693
0.000122803
0.000123879
0.000124916
0.00012591
0.000126852
0.000127738
0.000128558
0.000129304
0.000129966
0.000130532
0.000130987
0.000131314
0.000131491
6.30665e-05
5.72582e-05
5.52859e-05
5.70302e-05
6.08602e-05
6.59461e-05
7.17811e-05
7.79398e-05
8.40899e-05
9.00074e-05
9.55626e-05
0.000100696
0.000105394
0.000109676
0.000113578
0.000117143
0.000120416
0.000123442
0.000126262
0.00012891
0.000131416
0.000133807
0.000136102
0.000138319
0.000140473
0.000142574
0.000144632
0.000146654
0.000148645
0.000150611
0.000152553
0.000154474
0.000156373
0.000158251
0.000160103
0.000161929
0.000163722
0.000165478
0.000167189
0.000168847
0.000170442
0.000171963
0.000173398
0.000174732
0.000175949
0.000177032
0.000177959
0.000178707
0.000179245
0.000179537
6.66815e-05
5.85318e-05
5.6379e-05
6.08602e-05
6.94369e-05
7.99872e-05
9.12777e-05
0.000102613
0.000113561
0.000123855
0.000133352
0.000141998
0.000149804
0.000156819
0.00016312
0.000168793
0.000173925
0.000178601
0.000182897
0.000186879
0.000190605
0.000194123
0.000197473
0.000200687
0.000203794
0.000206814
0.000209765
0.000212663
0.000215517
0.000218337
0.000221128
0.000223895
0.00022664
0.000229361
0.000232057
0.000234724
0.000237353
0.000239938
0.000242467
0.000244927
0.000247303
0.000249576
0.000251727
0.000253732
0.000255567
0.000257203
0.000258608
0.000259742
0.000260558
0.000261002
7.10739e-05
6.10795e-05
5.87871e-05
6.59461e-05
7.99872e-05
9.77771e-05
0.000116968
0.000136167
0.000154585
0.000171777
0.000187514
0.000201716
0.000214404
0.000225667
0.000235632
0.000244451
0.000252276
0.000259259
0.000265536
0.000271232
0.000276451
0.000281287
0.000285813
0.000290095
0.000294184
0.000298123
0.000301947
0.000305685
0.00030936
0.000312988
0.000316585
0.000320159
0.000323716
0.000327258
0.000330784
0.000334289
0.000337765
0.000341199
0.000344578
0.000347882
0.000351089
0.000354172
0.000357102
0.000359845
0.000362365
0.000364618
0.000366558
0.000368126
0.000369259
0.000369873
7.57294e-05
6.43069e-05
6.20566e-05
7.17811e-05
9.12777e-05
0.000116968
0.000145504
0.000174582
0.000202808
0.000229367
0.000253814
0.000275943
0.000295716
0.000313205
0.000328563
0.000341989
0.000353705
0.00036394
0.000372913
0.00038083
0.000387875
0.000394209
0.000399972
0.00040528
0.000410234
0.000414917
0.000419396
0.000423729
0.000427961
0.000432129
0.000436262
0.000440381
0.000444502
0.000448633
0.000452777
0.00045693
0.000461084
0.000465224
0.000469332
0.000473382
0.000477344
0.000481181
0.000484852
0.000488311
0.000491504
0.000494374
0.000496852
0.000498864
0.000500319
0.000501111
8.0354e-05
6.77931e-05
6.57479e-05
7.79398e-05
0.000102613
0.000136167
0.000174582
0.000214648
0.00025423
0.000292024
0.000327268
0.000359542
0.000388663
0.000414608
0.000437475
0.000457448
0.000474766
0.000489706
0.000502556
0.000513606
0.000523129
0.000531382
0.000538593
0.000544966
0.000550676
0.000555877
0.000560696
0.000565243
0.000569606
0.000573859
0.000578063
0.000582263
0.000586494
0.000590779
0.000595131
0.000599554
0.000604041
0.000608577
0.000613139
0.000617698
0.000622213
0.000626636
0.000630911
0.000634975
0.000638758
0.00064218
0.000645153
0.000647577
0.000649336
0.000650296
8.47936e-05
7.12853e-05
6.9546e-05
8.40899e-05
0.000113561
0.000154585
0.000202808
0.00025423
0.000305927
0.000356024
0.000403397
0.000447391
0.000487649
0.000524005
0.000556444
0.000585056
0.000610019
0.000631579
0.000650029
0.000665691
0.000678903
0.000690002
0.000699313
0.000707141
0.000713765
0.000719439
0.000724383
0.000728792
0.000732831
0.000736641
0.000740337
0.000744013
0.000747742
0.000751578
0.000755558
0.000759701
0.000764011
0.000768475
0.000773072
0.000777768
0.000782512
0.000787243
0.000791889
0.000796367
0.000800584
0.000804438
0.000807813
0.000810583
0.000812603
0.000813709
8.8976e-05
7.46462e-05
7.32574e-05
9.00074e-05
0.000123855
0.000171777
0.000229367
0.000292024
0.000356024
0.000418856
0.000478993
0.000535545
0.000587997
0.000636063
0.000679605
0.000718595
0.000753099
0.000783261
0.000809294
0.000831474
0.000850122
0.000865594
0.000878269
0.000888529
0.000896752
0.000903301
0.000908515
0.000912704
0.000916144
0.000919081
0.000921724
0.000924247
0.000926795
0.00092948
0.000932383
0.00093556
0.000939039
0.000942822
0.000946896
0.000951226
0.000955755
0.000960409
0.000965098
0.000969715
0.000974143
0.000978249
0.00098189
0.000984906
0.00098712
0.000988337
9.28757e-05
7.78099e-05
7.67761e-05
9.55626e-05
0.000133352
0.000187514
0.000253814
0.000327268
0.000403397
0.000478993
0.000552072
0.000621488
0.00068659
0.000746997
0.000802492
0.000852957
0.000898349
0.000938693
0.000974082
0.00100467
0.0010307
0.00105244
0.00107024
0.0010845
0.00109563
0.00110408
0.00111028
0.00111467
0.00111765
0.00111961
0.00112088
0.00112176
0.00112252
0.00112336
0.00112444
0.00112589
0.00112778
0.00113016
0.00113303
0.00113637
0.00114013
0.00114421
0.00114852
0.00115291
0.00115726
0.00116138
0.0011651
0.00116822
0.00117054
0.00117182
9.6492e-05
8.07515e-05
8.00535e-05
0.000100696
0.000141998
0.000201716
0.000275943
0.000359542
0.000447391
0.000535545
0.000621488
0.000703781
0.000781625
0.000854574
0.000922358
0.000984808
0.00104182
0.00109332
0.0011393
0.00117978
0.00121487
0.00124471
0.00126955
0.00128969
0.0013055
0.00131742
0.00132594
0.00133156
0.0013348
0.00133618
0.0013362
0.0013353
0.00133389
0.00133234
0.00133093
0.00132991
0.00132943
0.00132961
0.0013305
0.00133213
0.00133444
0.00133736
0.00134076
0.00134449
0.00134837
0.0013522
0.00135577
0.00135882
0.00136113
0.00136241
9.98375e-05
8.34696e-05
8.30768e-05
0.000105394
0.000149804
0.000214404
0.000295716
0.000388663
0.000487649
0.000587997
0.00068659
0.000781625
0.000872138
0.000957608
0.00103774
0.00111233
0.00118125
0.00124438
0.00130163
0.00135294
0.00139827
0.00143765
0.00147116
0.00149897
0.00152134
0.0015386
0.00155119
0.0015596
0.00156441
0.00156622
0.00156564
0.00156331
0.00155978
0.00155562
0.00155128
0.00154716
0.00154358
0.00154077
0.00153888
0.00153799
0.0015381
0.00153915
0.00154102
0.00154354
0.0015465
0.00154967
0.00155278
0.00155555
0.00155769
0.0015589
0.000102931
8.59755e-05
8.58537e-05
0.000109676
0.000156819
0.000225667
0.000313205
0.000414608
0.000524005
0.000636063
0.000746997
0.000854574
0.000957608
0.00105549
0.00114791
0.00123464
0.00131554
0.00139047
0.0014593
0.00152192
0.00157819
0.00162804
0.00167142
0.00170834
0.00173889
0.00176327
0.00178178
0.00179482
0.0018029
0.00180664
0.00180671
0.00180383
0.00179875
0.0017922
0.00178484
0.00177729
0.00177006
0.00176356
0.00175808
0.00175384
0.00175092
0.00174932
0.00174894
0.00174961
0.0017511
0.00175315
0.00175544
0.00175765
0.00175944
0.00176048
0.000105795
8.82868e-05
8.84037e-05
0.000113578
0.00016312
0.000235632
0.000328563
0.000437475
0.000556444
0.000679605
0.000802492
0.000922358
0.00103774
0.00114791
0.0012525
0.00135131
0.00144417
0.00153094
0.00161148
0.00168562
0.00175321
0.00181407
0.00186806
0.00191508
0.00195505
0.00198802
0.0020141
0.00203355
0.00204674
0.00205418
0.00205652
0.0020545
0.00204895
0.00204074
0.00203075
0.00201981
0.00200867
0.00199797
0.00198824
0.00197986
0.00197306
0.00196796
0.00196451
0.00196259
0.00196197
0.00196235
0.00196338
0.0019647
0.00196591
0.00196666
0.000108452
9.04236e-05
9.07515e-05
0.000117143
0.000168793
0.000244451
0.000341989
0.000457448
0.000585056
0.000718595
0.000852957
0.000984808
0.00111233
0.00123464
0.00135131
0.00146211
0.00156689
0.0016655
0.00175779
0.00184357
0.00192265
0.00199483
0.00205989
0.00211762
0.00216786
0.00221049
0.00224545
0.00227283
0.00229281
0.00230575
0.00231214
0.00231267
0.00230815
0.00229952
0.00228777
0.00227394
0.00225903
0.00224396
0.00222949
0.0022163
0.00220482
0.00219535
0.00218797
0.00218263
0.00217915
0.00217721
0.00217646
0.00217646
0.00217681
0.00217713
0.000110924
9.24061e-05
9.29231e-05
0.000120416
0.000173925
0.000252276
0.000353705
0.000474766
0.000610019
0.000753099
0.000898349
0.00104182
0.00118125
0.00131554
0.00144417
0.00156689
0.00168355
0.00179398
0.00189804
0.00199553
0.00208623
0.00216991
0.0022463
0.00231516
0.00237621
0.00242922
0.00247402
0.00251051
0.00253868
0.0025587
0.00257088
0.00257574
0.00257397
0.00256646
0.00255426
0.00253852
0.00252043
0.00250118
0.00248184
0.00246338
0.00244655
0.00243188
0.00241968
0.00241003
0.00240284
0.00239784
0.00239467
0.00239289
0.00239204
0.00239173
0.00011323
9.42537e-05
9.49436e-05
0.000123442
0.000178601
0.000259259
0.00036394
0.000489706
0.000631579
0.000783261
0.000938693
0.00109332
0.00124438
0.00139047
0.00153094
0.0016655
0.00179398
0.00191623
0.00203208
0.00214132
0.00224374
0.00233906
0.00242699
0.00250723
0.00257947
0.00264338
0.00269869
0.00274514
0.00278259
0.00281099
0.00283046
0.00284129
0.00284401
0.00283935
0.00282829
0.00281199
0.00279175
0.00276896
0.002745
0.00272113
0.00269849
0.00267792
0.00266004
0.00264517
0.00263336
0.00262447
0.00261816
0.00261401
0.00261155
0.0026104
0.00011539
9.59838e-05
9.68361e-05
0.000126262
0.000182897
0.000265536
0.000372913
0.000502556
0.000650029
0.000809294
0.000974082
0.0011393
0.00130163
0.0014593
0.00161148
0.00175779
0.00189804
0.00203208
0.00215973
0.00228078
0.002395
0.00250208
0.00260171
0.00269356
0.00277726
0.00285244
0.00291873
0.00297578
0.00302331
0.0030611
0.00308908
0.00310733
0.00311613
0.00311602
0.0031078
0.00309253
0.00307152
0.00304625
0.00301832
0.0029893
0.00296068
0.00293374
0.00290945
0.00288846
0.0028711
0.0028574
0.00284714
0.00283995
0.00283541
0.00283317
0.000117418
9.76118e-05
9.86206e-05
0.00012891
0.000186879
0.000271232
0.00038083
0.000513606
0.000665691
0.000831474
0.00100467
0.00117978
0.00135294
0.00152192
0.00168562
0.00184357
0.00199553
0.00214132
0.00228078
0.00241369
0.00253978
0.00265874
0.00277023
0.00287388
0.00296928
0.00305602
0.00313366
0.00320179
0.00326
0.00330796
0.0033454
0.00337222
0.00338847
0.00339446
0.00339073
0.00337818
0.00335799
0.00333162
0.00330077
0.00326724
0.00323288
0.00319937
0.00316813
0.00314025
0.00311642
0.00309697
0.00308188
0.00307091
0.00306373
0.00306009
0.00011933
9.91508e-05
0.000100314
0.000131416
0.000190605
0.000276451
0.000387875
0.000523129
0.000678903
0.000850122
0.0010307
0.00121487
0.00139827
0.00157819
0.00175321
0.00192265
0.00208623
0.00224374
0.002395
0.00253978
0.0026778
0.00280874
0.00293223
0.00304786
0.00315518
0.00325375
0.00334306
0.00342265
0.00349202
0.00355073
0.0035984
0.00363471
0.00365954
0.00367294
0.00367522
0.00366701
0.00364929
0.00362339
0.00359097
0.00355398
0.00351449
0.00347457
0.00343614
0.00340078
0.00336966
0.00334351
0.00332266
0.0033071
0.00329668
0.0032913
0.000121138
0.000100612
0.000101932
0.000133807
0.000194123
0.000281287
0.000394209
0.000531382
0.000690002
0.000865594
0.00105244
0.00124471
0.00143765
0.00162804
0.00181407
0.00199483
0.00216991
0.00233906
0.00250208
0.00265874
0.00280874
0.00295175
0.00308736
0.00321513
0.00333458
0.00344521
0.00354649
0.00363787
0.0037188
0.00378875
0.00384722
0.00389378
0.00392809
0.00395001
0.00395959
0.0039572
0.00394354
0.00391974
0.00388731
0.00384816
0.00380452
0.00375876
0.00371324
0.00367007
0.00363101
0.00359732
0.00356979
0.00354879
0.00353445
0.00352696
0.000122851
0.000102006
0.000103486
0.000136102
0.000197473
0.000285813
0.000399972
0.000538593
0.000699313
0.000878269
0.00107024
0.00126955
0.00147116
0.00167142
0.00186806
0.00205989
0.0022463
0.00242699
0.00260171
0.00277023
0.00293223
0.00308736
0.00323518
0.00337524
0.003507
0.00362992
0.00374343
0.00384691
0.00393976
0.00402137
0.00409115
0.00414854
0.00419308
0.00422441
0.00424238
0.00424709
0.00423896
0.00421882
0.00418798
0.0041482
0.00410168
0.004051
0.00399886
0.0039479
0.0039005
0.00385858
0.00382352
0.00379623
0.0037773
0.0037673
0.000124479
0.000103339
0.000104986
0.000138319
0.000200687
0.000290095
0.00040528
0.000544966
0.000707141
0.000888529
0.0010845
0.00128969
0.00149897
0.00170834
0.00191508
0.00211762
0.00231516
0.00250723
0.00269356
0.00287388
0.00304786
0.00321513
0.00337524
0.00352769
0.00367192
0.00380734
0.00393331
0.00404918
0.00415428
0.00424793
0.00432945
0.0043982
0.00445357
0.00449506
0.00452232
0.00453521
0.00453387
0.00451886
0.00449116
0.00445232
0.00440442
0.00435004
0.00429212
0.00423376
0.00417795
0.00412734
0.00408405
0.00404969
0.00402549
0.00401256
0.000126029
0.000104618
0.00010644
0.000140473
0.000203794
0.000294184
0.000410234
0.000550676
0.000713765
0.000896752
0.00109563
0.0013055
0.00152134
0.00173889
0.00195505
0.00216786
0.00237621
0.00257947
0.00277726
0.00296928
0.00315518
0.00333458
0.003507
0.00367192
0.00382874
0.00397683
0.00411549
0.00424401
0.00436166
0.0044677
0.00456136
0.00464191
0.00470865
0.00476093
0.00479824
0.00482022
0.00482678
0.00481816
0.00479506
0.00475873
0.00471099
0.00465435
0.00459182
0.00452682
0.00446291
0.00440345
0.00435146
0.0043094
0.00427931
0.00426308
0.000127508
0.00010585
0.000107854
0.000142574
0.000206814
0.000298123
0.000414917
0.000555877
0.000719439
0.000903301
0.00110408
0.00131742
0.0015386
0.00176327
0.00198802
0.00221049
0.00242922
0.00264338
0.00285244
0.00305602
0.00325375
0.00344521
0.00362992
0.00380734
0.00397683
0.0041377
0.00428923
0.00443063
0.00456112
0.00467986
0.00478603
0.00487881
0.00495739
0.00502102
0.00506903
0.00510089
0.00511627
0.00511517
0.00509797
0.00506559
0.0050196
0.00496224
0.0048965
0.00482597
0.00475463
0.00468658
0.00462571
0.00457552
0.00453906
0.00451919
0.00012892
0.000107038
0.000109235
0.000144632
0.000209765
0.000301947
0.000419396
0.000560696
0.000724383
0.000908515
0.00111028
0.00132594
0.00155119
0.00178178
0.0020141
0.00224545
0.00247402
0.00269869
0.00291873
0.00313366
0.00334306
0.00354649
0.00374343
0.00393331
0.00411549
0.00428923
0.00445375
0.00460822
0.00475178
0.00488352
0.00500255
0.00510794
0.00519881
0.00527429
0.00533358
0.00537599
0.00540101
0.0054084
0.00539825
0.00537117
0.0053284
0.00527192
0.00520453
0.00512984
0.00505214
0.00497613
0.0049066
0.00484815
0.00480504
0.00478131
0.000130271
0.000108186
0.000110585
0.000146654
0.000212663
0.000305685
0.000423729
0.000565243
0.000728792
0.000912704
0.00111467
0.00133156
0.0015596
0.00179482
0.00203355
0.00227283
0.00251051
0.00274514
0.00297578
0.00320179
0.00342265
0.00363787
0.00384691
0.00404918
0.00424401
0.00443063
0.00460822
0.0047759
0.00493272
0.00507771
0.00520989
0.00532826
0.00543183
0.00551962
0.00559072
0.00564431
0.00567969
0.00569641
0.00569434
0.00567377
0.00563563
0.00558158
0.00551417
0.00543691
0.00535424
0.00527131
0.00519376
0.00512731
0.00507754
0.00504986
0.000131563
0.000109297
0.00011191
0.000148645
0.000215517
0.00030936
0.000427961
0.000569606
0.000732831
0.000916144
0.00111765
0.0013348
0.00156441
0.0018029
0.00204674
0.00229281
0.00253868
0.00278259
0.00302331
0.00326
0.00349202
0.0037188
0.00393976
0.00415428
0.00436166
0.00456112
0.00475178
0.00493272
0.00510293
0.00526137
0.00540697
0.00553863
0.00565527
0.00575582
0.00583923
0.00590455
0.00595096
0.0059778
0.00598472
0.00597177
0.00593956
0.00588944
0.00582367
0.00574558
0.00565958
0.00557119
0.00548671
0.00541295
0.00535688
0.00532536
0.0001328
0.000110373
0.00011321
0.000150611
0.000218337
0.000312988
0.000432129
0.000573859
0.000736641
0.000919081
0.00111961
0.00133618
0.00156622
0.00180664
0.00205418
0.00230575
0.0025587
0.00281099
0.0030611
0.00330796
0.00355073
0.00378875
0.00402137
0.00424793
0.0044677
0.00467986
0.00488352
0.00507771
0.00526137
0.00543338
0.00559259
0.00573782
0.00586788
0.00598158
0.00607777
0.00615538
0.00621343
0.00625112
0.00626789
0.00626358
0.00623853
0.00619379
0.00613132
0.00605421
0.0059668
0.00587475
0.00578491
0.00570504
0.00564344
0.00560844
0.000133985
0.000111416
0.000114489
0.000152553
0.000221128
0.000316585
0.000436262
0.000578063
0.000740337
0.000921724
0.00112088
0.0013362
0.00156564
0.00180671
0.00205652
0.00231214
0.00257088
0.00283046
0.00308908
0.0033454
0.0035984
0.00384722
0.00409115
0.00432945
0.00456136
0.00478603
0.00500255
0.00520989
0.00540697
0.00559259
0.00576554
0.00592453
0.00606829
0.0061955
0.00630492
0.00639533
0.00646563
0.00651486
0.00654232
0.00654762
0.00653091
0.00649296
0.00643547
0.00636127
0.00627455
0.00618102
0.00608787
0.00600365
0.00593777
0.00589998
0.000135119
0.000112427
0.000115745
0.000154474
0.000223895
0.000320159
0.000440381
0.000582263
0.000744013
0.000924247
0.00112176
0.0013353
0.00156331
0.00180383
0.0020545
0.00231267
0.00257574
0.00284129
0.00310733
0.00337222
0.00363471
0.00389378
0.00414854
0.0043982
0.00464191
0.00487881
0.00510794
0.00532826
0.00553863
0.00573782
0.00592453
0.00609741
0.00625507
0.00639611
0.00651914
0.00662285
0.00670598
0.00676746
0.00680642
0.00682233
0.00681513
0.00678541
0.00673463
0.00666539
0.00658172
0.00648925
0.0063954
0.00630918
0.00624089
0.00620134
0.000136204
0.000113408
0.000116981
0.000156373
0.00022664
0.000323716
0.000444502
0.000586494
0.000747742
0.000926795
0.00112252
0.00133389
0.00155978
0.00179875
0.00204895
0.00230815
0.00257397
0.00284401
0.00311613
0.00338847
0.00365954
0.00392809
0.00419308
0.00445357
0.00470865
0.00495739
0.00519881
0.00543183
0.00565527
0.00586788
0.00606829
0.00625507
0.00642676
0.00658185
0.00671884
0.00683629
0.00693284
0.00700726
0.00705858
0.00708612
0.00708967
0.00706969
0.00702748
0.00696546
0.0068875
0.00679914
0.00670781
0.00662272
0.00655459
0.00651479
0.000137241
0.000114358
0.000118195
0.000158251
0.000229361
0.000327258
0.000448633
0.000590779
0.000751578
0.00092948
0.00112336
0.00133234
0.00155562
0.0017922
0.00204074
0.00229952
0.00256646
0.00283935
0.00311602
0.00339446
0.00367294
0.00395001
0.00422441
0.00449506
0.00476093
0.00502102
0.00527429
0.00551962
0.00575582
0.00598158
0.0061955
0.00639611
0.00658185
0.00675113
0.00690235
0.00703396
0.00714447
0.00723256
0.00729712
0.00733738
0.00735307
0.00734452
0.00731296
0.00726077
0.00719168
0.00711115
0.00702646
0.00694664
0.00688221
0.0068443
0.000138231
0.000115278
0.000119387
0.000160103
0.000232057
0.000330784
0.000452777
0.000595131
0.000755558
0.000932383
0.00112444
0.00133093
0.00155128
0.00178484
0.00203075
0.00228777
0.00255426
0.00282829
0.0031078
0.00339073
0.00367522
0.00395959
0.00424238
0.00452232
0.00479824
0.00506903
0.00533358
0.00559072
0.00583923
0.00607777
0.00630492
0.00651914
0.00671884
0.00690235
0.00706799
0.00721411
0.00733911
0.00744159
0.00752035
0.00757458
0.00760395
0.00760881
0.00759043
0.00755123
0.00749498
0.00742705
0.00735441
0.00728549
0.0072297
0.00719672
0.000139175
0.000116166
0.000120554
0.000161929
0.000234724
0.000334289
0.00045693
0.000599554
0.000759701
0.00093556
0.00112589
0.00132991
0.00154716
0.00177729
0.00201981
0.00227394
0.00253852
0.00281199
0.00309253
0.00337818
0.00366701
0.0039572
0.00424709
0.00453521
0.00482022
0.00510089
0.00537599
0.00564431
0.00590455
0.00615538
0.00639533
0.00662285
0.00683629
0.00703396
0.00721411
0.007375
0.007515
0.00763263
0.00772665
0.00779625
0.00784116
0.00786187
0.00785984
0.00783773
0.00779954
0.00775065
0.00769758
0.00764749
0.00760744
0.00758384
0.000140072
0.000117022
0.000121693
0.000163722
0.000237353
0.000337765
0.000461084
0.000604041
0.000764011
0.000939039
0.00112778
0.00132943
0.00154358
0.00177006
0.00200867
0.00225903
0.00252043
0.00279175
0.00307152
0.00335799
0.00364929
0.00394354
0.00423896
0.00453387
0.00482678
0.00511627
0.00540101
0.00567969
0.00595096
0.00621343
0.00646563
0.00670598
0.00693284
0.00714447
0.00733911
0.007515
0.00767048
0.00780405
0.00791452
0.00800117
0.00806393
0.0081036
0.0081221
0.00812265
0.00810978
0.00808904
0.00806634
0.00804667
0.00803288
0.00802531
0.000140922
0.000117845
0.000122803
0.000165478
0.000239938
0.000341199
0.000465224
0.000608577
0.000768475
0.000942822
0.00113016
0.00132961
0.00154077
0.00176356
0.00199797
0.00224396
0.00250118
0.00276896
0.00304625
0.00333162
0.00362339
0.00391974
0.00421882
0.00451886
0.00481816
0.00511517
0.0054084
0.00569641
0.0059778
0.00625112
0.00651486
0.00676746
0.00700726
0.00723256
0.00744159
0.00763263
0.00780405
0.00795444
0.00808275
0.00818853
0.00827209
0.00833489
0.00837968
0.00841073
0.00843362
0.00845439
0.00847805
0.00850614
0.00853442
0.0085529
0.000141725
0.000118633
0.000123879
0.000167189
0.000242467
0.000344578
0.000469332
0.000613139
0.000773072
0.000946896
0.00113303
0.0013305
0.00153888
0.00175808
0.00198824
0.00222949
0.00248184
0.002745
0.00301832
0.00330077
0.00359097
0.00388731
0.00418798
0.00449116
0.00479506
0.00509797
0.00539825
0.00569434
0.00598472
0.00626789
0.00654232
0.00680642
0.00705858
0.00729712
0.00752035
0.00772665
0.00791452
0.00808275
0.00823063
0.00835819
0.00846651
0.00855815
0.00863738
0.00871029
0.00878427
0.00886638
0.00896037
0.00906224
0.00915636
0.00921601
0.00014248
0.000119383
0.000124916
0.000168847
0.000244927
0.000347882
0.000473382
0.000617698
0.000777768
0.000951226
0.00113637
0.00133213
0.00153799
0.00175384
0.00197986
0.0022163
0.00246338
0.00272113
0.0029893
0.00326724
0.00355398
0.00384816
0.0041482
0.00445232
0.00475873
0.00506559
0.00537117
0.00567377
0.00597177
0.00626358
0.00654762
0.00682233
0.00708612
0.00733738
0.00757458
0.00779625
0.00800117
0.00818853
0.00835819
0.00851106
0.00864957
0.00877812
0.00890351
0.00903487
0.00918261
0.00935557
0.00955549
0.00976977
0.00996484
0.0100879
0.000143185
0.000120094
0.00012591
0.000170442
0.000247303
0.000351089
0.000477344
0.000622213
0.000782512
0.000955755
0.00114013
0.00133444
0.0015381
0.00175092
0.00197306
0.00220482
0.00244655
0.00269849
0.00296068
0.00323288
0.00351449
0.00380452
0.00410168
0.00440442
0.00471099
0.0050196
0.0053284
0.00563563
0.00593956
0.00623853
0.00653091
0.00681513
0.00708967
0.00735307
0.00760395
0.00784116
0.00806393
0.00827209
0.00846651
0.00864957
0.00882584
0.00900278
0.00919125
0.00940525
0.00965998
0.00996685
0.0103245
0.0107069
0.0110529
0.0112708
0.00014384
0.000120761
0.000126852
0.000171963
0.000249576
0.000354172
0.000481181
0.000626636
0.000787243
0.000960409
0.00114421
0.00133736
0.00153915
0.00174932
0.00196796
0.00219535
0.00243188
0.00267792
0.00293374
0.00319937
0.00347457
0.00375876
0.004051
0.00435004
0.00465435
0.00496224
0.00527192
0.00558158
0.00588944
0.00619379
0.00649296
0.00678541
0.00706969
0.00734452
0.00760881
0.00786187
0.0081036
0.00833489
0.00855815
0.00877812
0.00900278
0.00924439
0.00952011
0.00985138
0.0102605
0.0107623
0.0113502
0.0119773
0.0125423
0.012897
0.000144443
0.000121382
0.000127738
0.000173398
0.000251727
0.000357102
0.000484852
0.000630911
0.000791889
0.000965098
0.00114852
0.00134076
0.00154102
0.00174894
0.00196451
0.00218797
0.00241968
0.00266004
0.00290945
0.00316813
0.00343614
0.00371324
0.00399886
0.00429212
0.00459182
0.0048965
0.00520453
0.00551417
0.00582367
0.00613132
0.00643547
0.00673463
0.00702748
0.00731296
0.00759043
0.00785984
0.0081221
0.00837968
0.00863738
0.00890351
0.00919125
0.00952011
0.00991663
0.010413
0.0110413
0.0118205
0.0127346
0.0137055
0.014575
0.0151192
0.000144991
0.000121952
0.000128558
0.000174732
0.000253732
0.000359845
0.000488311
0.000634975
0.000796367
0.000969715
0.00115291
0.00134449
0.00154354
0.00174961
0.00196259
0.00218263
0.00241003
0.00264517
0.00288846
0.00314025
0.00340078
0.00367007
0.0039479
0.00423376
0.00452682
0.00482597
0.00512984
0.00543691
0.00574558
0.00605421
0.00636127
0.00666539
0.00696546
0.00726077
0.00755123
0.00783773
0.00812265
0.00841073
0.00871029
0.00903487
0.00940525
0.00985138
0.010413
0.011137
0.0120679
0.0132279
0.0145851
0.0160175
0.0172918
0.0180866
0.000145481
0.000122467
0.000129304
0.000175949
0.000255567
0.000362365
0.000491504
0.000638758
0.000800584
0.000974143
0.00115726
0.00134837
0.0015465
0.0017511
0.00196197
0.00217915
0.00240284
0.00263336
0.0028711
0.00311642
0.00336966
0.00363101
0.0039005
0.00417795
0.00446291
0.00475463
0.00505214
0.00535424
0.00565958
0.0059668
0.00627455
0.00658172
0.0068875
0.00719168
0.00749498
0.00779954
0.00810978
0.00843362
0.00878427
0.00918261
0.00965998
0.0102605
0.0110413
0.0120679
0.0133988
0.0150566
0.0169851
0.0190057
0.0207934
0.0219078
0.000145909
0.000122921
0.000129966
0.000177032
0.000257203
0.000364618
0.000494374
0.00064218
0.000804438
0.000978249
0.00116138
0.0013522
0.00154967
0.00175315
0.00196235
0.00217721
0.00239784
0.00262447
0.0028574
0.00309697
0.00334351
0.00359732
0.00385858
0.00412734
0.00440345
0.00468658
0.00497613
0.00527131
0.00557119
0.00587475
0.00618102
0.00648925
0.00679914
0.00711115
0.00742705
0.00775065
0.00808904
0.00845439
0.00886638
0.00935557
0.00996685
0.0107623
0.0118205
0.0132279
0.0150566
0.0173249
0.0199463
0.0226795
0.025099
0.0266189
0.000146271
0.000123306
0.000130532
0.000177959
0.000258608
0.000366558
0.000496852
0.000645153
0.000807813
0.00098189
0.0011651
0.00135577
0.00155278
0.00175544
0.00196338
0.00217646
0.00239467
0.00261816
0.00284714
0.00308188
0.00332266
0.00356979
0.00382352
0.00408405
0.00435146
0.00462571
0.0049066
0.00519376
0.00548671
0.00578491
0.00608787
0.0063954
0.00670781
0.00702646
0.00735441
0.00769758
0.00806634
0.00847805
0.00896037
0.00955549
0.0103245
0.0113502
0.0127346
0.0145851
0.0169851
0.0199463
0.0233545
0.0269179
0.0301159
0.0321742
0.00014656
0.000123615
0.000130987
0.000178707
0.000259742
0.000368126
0.000498864
0.000647577
0.000810583
0.000984906
0.00116822
0.00135882
0.00155555
0.00175765
0.0019647
0.00217646
0.00239289
0.00261401
0.00283995
0.00307091
0.0033071
0.00354879
0.00379623
0.00404969
0.0043094
0.00457552
0.00484815
0.00512731
0.00541295
0.00570504
0.00600365
0.00630918
0.00662272
0.00694664
0.00728549
0.00764749
0.00804667
0.00850614
0.00906224
0.00976977
0.0107069
0.0119773
0.0137055
0.0160175
0.0190057
0.0226795
0.0269179
0.0314191
0.0356061
0.0384605
0.000146766
0.000123837
0.000131314
0.000179245
0.000260558
0.000369259
0.000500319
0.000649336
0.000812603
0.00098712
0.00117054
0.00136113
0.00155769
0.00175944
0.00196591
0.00217681
0.00239204
0.00261155
0.00283541
0.00306373
0.00329668
0.00353445
0.0037773
0.00402549
0.00427931
0.00453906
0.00480504
0.00507754
0.00535688
0.00564344
0.00593777
0.00624089
0.00655459
0.00688221
0.0072297
0.00760744
0.00803288
0.00853442
0.00915636
0.00996484
0.0110529
0.0125423
0.014575
0.0172918
0.0207934
0.025099
0.0301159
0.0356061
0.0410631
0.045278
0.000146876
0.000123956
0.000131491
0.000179537
0.000261002
0.000369873
0.000501111
0.000650296
0.000813709
0.000988337
0.00117182
0.00136241
0.0015589
0.00176048
0.00196666
0.00217713
0.00239173
0.0026104
0.00283317
0.00306009
0.0032913
0.00352696
0.0037673
0.00401256
0.00426308
0.00451919
0.00478131
0.00504986
0.00532536
0.00560844
0.00589998
0.00620134
0.00651479
0.0068443
0.00719672
0.00758384
0.00802531
0.0085529
0.00921601
0.0100879
0.0112708
0.012897
0.0151192
0.0180866
0.0219078
0.0266189
0.0321742
0.0384605
0.045278
0.0520633
)
;

boundaryField
{
    bottomWall
    {
        type            nutkWallFunction;
        Cmu             0.09;
        kappa           0.41;
        E               9.8;
        value           uniform 0;
    }
    leftWall
    {
        type            nutkWallFunction;
        Cmu             0.09;
        kappa           0.41;
        E               9.8;
        value           uniform 0;
    }
    topSym
    {
        type            symmetryPlane;
    }
    rightSym
    {
        type            symmetryPlane;
    }
    inlet
    {
        type            cyclic;
    }
    outlet
    {
        type            cyclic;
    }
}


// ************************************************************************* //
