/*--------------------------------*- C++ -*----------------------------------*\
| =========                 |                                                 |
| \\      /  F ield         | OpenFOAM: The Open Source CFD Toolbox           |
|  \\    /   O peration     | Version:  v1912                                 |
|   \\  /    A nd           | Website:  www.openfoam.com                      |
|    \\/     M anipulation  |                                                 |
\*---------------------------------------------------------------------------*/
FoamFile
{
    version     2.0;
    format      ascii;
    class       volScalarField;
    location    "2000";
    object      p;
}
// * * * * * * * * * * * * * * * * * * * * * * * * * * * * * * * * * * * * * //

dimensions      [0 2 -2 0 0 0 0];


internalField   nonuniform List<scalar> 
2500
(
-3.60681e-12
7.24218e-08
2.70334e-07
6.06237e-07
1.14448e-06
2.01042e-06
3.35852e-06
5.32575e-06
7.98653e-06
1.13351e-05
1.52935e-05
1.97343e-05
2.4506e-05
2.94564e-05
3.44478e-05
3.93645e-05
4.41155e-05
4.86323e-05
5.28652e-05
5.67777e-05
6.03426e-05
6.35366e-05
6.63371e-05
6.87193e-05
7.06541e-05
7.21069e-05
7.30369e-05
7.33973e-05
7.31359e-05
7.21965e-05
7.05206e-05
6.80495e-05
6.47276e-05
6.05056e-05
5.5345e-05
4.92229e-05
4.21377e-05
3.41147e-05
2.52104e-05
1.55162e-05
5.17371e-06
-5.63114e-06
-1.66531e-05
-2.76101e-05
-3.81551e-05
-4.79424e-05
-5.65555e-05
-6.36574e-05
-6.87916e-05
-7.16365e-05
7.24218e-08
9.91601e-08
2.70678e-07
5.73703e-07
1.05116e-06
1.81944e-06
3.02847e-06
4.81244e-06
7.2481e-06
1.03402e-05
1.40271e-05
1.81974e-05
2.27121e-05
2.74261e-05
3.22031e-05
3.69262e-05
4.1501e-05
4.58552e-05
4.99356e-05
5.37036e-05
5.71302e-05
6.01915e-05
6.28648e-05
6.51257e-05
6.69458e-05
6.82914e-05
6.91224e-05
6.93932e-05
6.90523e-05
6.80442e-05
6.63111e-05
6.37948e-05
6.044e-05
5.61976e-05
5.10291e-05
4.49114e-05
3.78423e-05
2.98465e-05
2.09798e-05
1.1332e-05
1.04341e-06
-9.70211e-06
-2.06614e-05
-3.15547e-05
-4.20378e-05
-5.17672e-05
-6.03291e-05
-6.73885e-05
-7.24909e-05
-7.53453e-05
2.70334e-07
2.70678e-07
5.05024e-07
9.42458e-07
1.62423e-06
2.68013e-06
4.28684e-06
6.60801e-06
9.74049e-06
1.37017e-05
1.84383e-05
2.38423e-05
2.97724e-05
3.60751e-05
4.26018e-05
4.92207e-05
5.58219e-05
6.23188e-05
6.86452e-05
7.47519e-05
8.06011e-05
8.61615e-05
9.14047e-05
9.63008e-05
0.000100817
0.000104914
0.000108548
0.000111668
0.000114216
0.000116132
0.00011735
0.000117805
0.000117432
0.000116175
0.000113983
0.000110821
0.000106675
0.000101554
9.55e-05
8.85844e-05
8.09292e-05
7.26978e-05
6.41113e-05
5.54252e-05
4.69574e-05
3.90209e-05
3.19955e-05
2.6175e-05
2.19646e-05
1.95795e-05
6.06237e-07
5.73703e-07
9.42458e-07
1.73998e-06
3.11447e-06
5.29055e-06
8.50741e-06
1.29735e-05
1.88045e-05
2.60105e-05
3.45115e-05
4.41607e-05
5.47728e-05
6.61481e-05
7.80923e-05
9.04294e-05
0.000103008
0.000115705
0.000128422
0.00014108
0.000153616
0.00016598
0.000178123
0.000189999
0.000201561
0.000212756
0.000223525
0.000233804
0.000243523
0.000252605
0.000260971
0.000268539
0.000275226
0.000280956
0.00028566
0.000289278
0.000291771
0.000293123
0.000293344
0.000292475
0.000290604
0.000287856
0.000284412
0.000280483
0.000276336
0.000272227
0.00026847
0.000265277
0.000262954
0.000261586
1.14448e-06
1.05116e-06
1.62423e-06
3.11447e-06
6.07408e-06
1.10741e-05
1.84244e-05
2.82076e-05
4.03678e-05
5.47648e-05
7.11915e-05
8.9393e-05
0.000109092
0.000130011
0.000151884
0.000174473
0.000197564
0.000220977
0.00024456
0.000268187
0.000291751
0.000315162
0.000338339
0.000361207
0.000383694
0.000405724
0.00042722
0.0004481
0.000468276
0.000487659
0.000506151
0.000523657
0.000540077
0.000555318
0.000569291
0.000581918
0.000593136
0.000602903
0.000611204
0.000618049
0.000623494
0.000627629
0.000630592
0.00063255
0.00063372
0.000634297
0.000634523
0.000634519
0.000634477
0.000634365
2.01042e-06
1.81944e-06
2.68013e-06
5.29055e-06
1.10741e-05
2.13946e-05
3.65696e-05
5.60077e-05
7.8913e-05
0.000104662
0.000132791
0.000162919
0.000194713
0.000227874
0.000262125
0.000297208
0.000332885
0.000368935
0.000405162
0.000441385
0.000477448
0.000513209
0.000548542
0.000583334
0.000617477
0.00065087
0.000683416
0.000715016
0.000745573
0.000774986
0.000803157
0.000829984
0.000855368
0.000879214
0.000901431
0.000921938
0.00094067
0.000957579
0.000972641
0.000985862
0.000997284
0.00100698
0.00101507
0.0010217
0.00102705
0.00103129
0.00103461
0.00103707
0.00103878
0.00103964
3.35852e-06
3.02847e-06
4.28684e-06
8.50741e-06
1.84244e-05
3.65696e-05
6.30406e-05
9.57415e-05
0.000132334
0.000171342
0.000212021
0.000253993
0.000297044
0.000341029
0.000385817
0.000431268
0.000477221
0.000523496
0.000569899
0.000616229
0.00066229
0.00070789
0.000752853
0.000797013
0.000840218
0.000882328
0.000923215
0.000962761
0.00100085
0.00103739
0.00107226
0.00110538
0.00113666
0.00116601
0.00119336
0.00121864
0.00124181
0.00126284
0.0012817
0.00129843
0.00131308
0.00132572
0.00133648
0.0013455
0.00135297
0.00135903
0.00136387
0.00136753
0.0013701
0.00137141
5.32575e-06
4.81244e-06
6.60801e-06
1.29735e-05
2.82076e-05
5.60077e-05
9.57415e-05
0.000143026
0.000193432
0.000244523
0.000295441
0.000346043
0.000396445
0.000446836
0.000497389
0.000548221
0.00059937
0.000650801
0.000702411
0.000754045
0.000805509
0.00085659
0.000907066
0.000956716
0.00100533
0.0010527
0.00109865
0.00114302
0.00118565
0.00122641
0.00126519
0.00130188
0.00133639
0.00136866
0.00139862
0.00142622
0.00145143
0.00147425
0.00149469
0.0015128
0.00152865
0.00154233
0.001554
0.00156379
0.00157191
0.00157851
0.00158378
0.00158776
0.00159054
0.00159195
7.98653e-06
7.2481e-06
9.74048e-06
1.88045e-05
4.03678e-05
7.8913e-05
0.000132334
0.000193432
0.000255668
0.000315927
0.000373548
0.00042884
0.000482369
0.000534716
0.000586393
0.00063781
0.000689265
0.000740936
0.000792893
0.000845107
0.000897467
0.000949798
0.00100188
0.00105346
0.00110428
0.00115407
0.00120258
0.00124956
0.00129479
0.00133808
0.00137925
0.00141816
0.0014547
0.00148876
0.00152028
0.00154922
0.00157556
0.0015993
0.00162049
0.00163918
0.00165547
0.00166949
0.00168138
0.00169133
0.00169955
0.00170619
0.00171147
0.00171544
0.0017182
0.00171957
1.13351e-05
1.03402e-05
1.37017e-05
2.60105e-05
5.47648e-05
0.000104662
0.000171342
0.000244523
0.000315927
0.000382293
0.000443508
0.000500486
0.000554263
0.000605758
0.000655742
0.000704845
0.000753568
0.000802295
0.000851287
0.000900695
0.000950559
0.00100082
0.00105135
0.00110193
0.00115231
0.00120219
0.00125126
0.00129921
0.00134573
0.00139053
0.00143334
0.00147395
0.00151216
0.00154781
0.00158079
0.00161103
0.0016385
0.00166319
0.00168514
0.00170445
0.00172121
0.00173556
0.00174769
0.00175778
0.00176606
0.00177272
0.00177797
0.00178189
0.0017846
0.00178594
1.52935e-05
1.40271e-05
1.84383e-05
3.45115e-05
7.11915e-05
0.000132791
0.000212021
0.000295441
0.000373548
0.000443508
0.000506077
0.000562867
0.000615359
0.000664737
0.000711924
0.000757652
0.000802518
0.000847013
0.000891536
0.000936394
0.000981797
0.00102785
0.00107457
0.00112188
0.0011696
0.00121749
0.00126526
0.00131256
0.00135903
0.00140431
0.00144803
0.00148986
0.0015295
0.0015667
0.00160125
0.00163302
0.00166191
0.00168788
0.00171095
0.0017312
0.00174874
0.00176372
0.00177633
0.00178677
0.0017953
0.00180211
0.00180745
0.0018114
0.00181412
0.00181546
1.97343e-05
1.81974e-05
2.38423e-05
4.41607e-05
8.9393e-05
0.000162919
0.000253993
0.000346043
0.00042884
0.000500486
0.000562867
0.00061834
0.000668795
0.000715624
0.000759835
0.000802175
0.000843234
0.000883511
0.000923438
0.0009634
0.00100372
0.00104465
0.00108636
0.00112895
0.00117239
0.00121657
0.0012613
0.0013063
0.00135123
0.00139568
0.00143925
0.00148151
0.00152206
0.00156052
0.00159657
0.00162996
0.0016605
0.00168806
0.00171261
0.00173419
0.00175288
0.00176884
0.00178224
0.00179331
0.00180232
0.00180948
0.00181505
0.00181915
0.00182195
0.00182333
2.4506e-05
2.27121e-05
2.97724e-05
5.47728e-05
0.000109092
0.000194713
0.000297044
0.000396445
0.000482369
0.000554263
0.000615359
0.000668795
0.000716825
0.000760992
0.000802354
0.000841641
0.000879388
0.000916029
0.000951949
0.000987514
0.00102308
0.00105896
0.00109546
0.0011328
0.00117113
0.00121051
0.0012509
0.00129216
0.00133405
0.00137625
0.00141835
0.00145991
0.00150046
0.00153951
0.00157663
0.00161144
0.0016436
0.00167289
0.00169914
0.00172235
0.00174253
0.00175978
0.0017743
0.00178628
0.00179601
0.00180373
0.0018097
0.00181407
0.00181703
0.00181849
2.94564e-05
2.74261e-05
3.60751e-05
6.61481e-05
0.000130011
0.000227874
0.000341029
0.000446836
0.000534716
0.000605758
0.000664737
0.000715624
0.000760992
0.00080248
0.00084116
0.000877733
0.000912676
0.000946335
0.000979009
0.00101099
0.00104257
0.00107408
0.00110584
0.00113817
0.00117132
0.00120551
0.00124088
0.00127745
0.00131516
0.00135381
0.00139311
0.00143267
0.00147203
0.00151067
0.00154808
0.00158374
0.0016172
0.00164806
0.00167605
0.00170102
0.00172291
0.00174173
0.00175763
0.0017708
0.00178149
0.00178995
0.00179649
0.00180125
0.00180447
0.00180605
3.44478e-05
3.22031e-05
4.26018e-05
7.80923e-05
0.000151884
0.000262125
0.000385817
0.000497389
0.000586393
0.000655742
0.000711924
0.000759835
0.000802354
0.00084116
0.00087729
0.000911403
0.000943919
0.000975111
0.00100519
0.00103434
0.00106279
0.00109078
0.00111861
0.00114659
0.00117504
0.00120428
0.00123456
0.00126608
0.00129894
0.00133314
0.00136854
0.00140489
0.00144182
0.00147888
0.00151551
0.00155116
0.00158526
0.00161728
0.00164677
0.00167345
0.00169711
0.00171766
0.00173515
0.00174972
0.00176159
0.001771
0.00177826
0.00178355
0.0017871
0.00178885
3.93645e-05
3.69262e-05
4.92207e-05
9.04294e-05
0.000174473
0.000297208
0.000431268
0.000548221
0.00063781
0.000704845
0.000757652
0.000802175
0.000841641
0.000877733
0.000911403
0.00094323
0.000973572
0.00100264
0.00103058
0.00105749
0.0010835
0.00110876
0.00113348
0.00115794
0.00118245
0.00120733
0.00123293
0.00125955
0.00128743
0.00131674
0.00134754
0.00137976
0.00141319
0.00144749
0.00148221
0.00151679
0.00155062
0.00158308
0.00161358
0.00164167
0.00166698
0.00168928
0.00170847
0.0017246
0.00173784
0.00174838
0.00175652
0.00176245
0.00176643
0.00176839
4.41155e-05
4.1501e-05
5.58219e-05
0.000103008
0.000197564
0.000332885
0.000477221
0.00059937
0.000689265
0.000753568
0.000802518
0.000843234
0.000879388
0.000912676
0.000943919
0.000973572
0.00100191
0.00102908
0.00105517
0.00108023
0.00110429
0.00112741
0.00114974
0.00117145
0.00119279
0.00121407
0.00123564
0.00125784
0.00128102
0.00130548
0.00133142
0.00135898
0.00138814
0.00141874
0.00145046
0.00148287
0.00151538
0.00154737
0.00157815
0.00160711
0.00163374
0.00165762
0.0016785
0.00169627
0.001711
0.00172283
0.001732
0.0017387
0.0017432
0.00174542
4.86323e-05
4.58552e-05
6.23188e-05
0.000115705
0.000220977
0.000368935
0.000523496
0.000650801
0.000740936
0.000802295
0.000847013
0.000883511
0.000916029
0.000946335
0.000975111
0.00100264
0.00102908
0.0010545
0.00107893
0.00110236
0.00112479
0.00114621
0.00116665
0.00118622
0.00120509
0.0012235
0.00124174
0.00126019
0.00127919
0.00129914
0.00132037
0.00134314
0.00136763
0.00139387
0.00142175
0.00145099
0.00148115
0.00151164
0.00154179
0.00157088
0.00159828
0.0016234
0.00164579
0.00166517
0.00168145
0.00169466
0.00170499
0.00171258
0.00171768
0.00172022
5.28652e-05
4.99356e-05
6.86452e-05
0.000128422
0.00024456
0.000405162
0.000569899
0.000702411
0.000792893
0.000851287
0.000891536
0.000923438
0.000951949
0.000979009
0.00100519
0.00103058
0.00105517
0.00107893
0.00110181
0.00112377
0.00114475
0.00116471
0.00118362
0.0012015
0.00121843
0.00123457
0.00125017
0.00126552
0.00128099
0.00129697
0.00131386
0.00133203
0.00135181
0.0013734
0.00139689
0.0014222
0.00144908
0.00147708
0.00150561
0.00153395
0.00156139
0.00158719
0.00161074
0.00163154
0.00164933
0.00166397
0.00167554
0.00168412
0.00168991
0.00169282
5.67777e-05
5.37036e-05
7.47519e-05
0.00014108
0.000268187
0.000441385
0.000616229
0.000754045
0.000845107
0.000900695
0.000936394
0.0009634
0.000987514
0.00101099
0.00103434
0.00105749
0.00108023
0.00110236
0.00112377
0.00114434
0.00116399
0.00118264
0.00120022
0.00121669
0.00123206
0.00124641
0.0012599
0.00127277
0.00128532
0.00129793
0.00131101
0.00132499
0.00134027
0.00135722
0.00137608
0.00139699
0.00141989
0.00144455
0.00147052
0.00149716
0.00152376
0.00154955
0.00157372
0.0015956
0.00161472
0.00163074
0.00164359
0.00165322
0.00165978
0.00166309
6.03426e-05
5.71302e-05
8.06011e-05
0.000153616
0.000291751
0.000477448
0.00066229
0.000805509
0.000897467
0.000950559
0.000981797
0.00100372
0.00102308
0.00104257
0.00106279
0.0010835
0.00110429
0.00112479
0.00114475
0.00116399
0.00118238
0.0011998
0.00121616
0.00123138
0.00124543
0.00125831
0.0012701
0.00128097
0.00129115
0.00130097
0.0013108
0.00132109
0.00133228
0.00134483
0.00135911
0.00137542
0.00139392
0.00141459
0.00143717
0.00146122
0.00148608
0.001511
0.00153511
0.00155758
0.00157769
0.00159493
0.001609
0.00161971
0.00162707
0.00163082
6.35366e-05
6.01915e-05
8.61615e-05
0.00016598
0.000315162
0.000513209
0.00070789
0.00085659
0.000949798
0.00100082
0.00102785
0.00104465
0.00105896
0.00107408
0.00109078
0.00110876
0.00112741
0.00114621
0.00116471
0.00118264
0.0011998
0.00121604
0.00123123
0.0012453
0.00125815
0.00126975
0.00128012
0.00128935
0.0012976
0.00130512
0.00131224
0.00131936
0.00132695
0.00133548
0.00134541
0.00135719
0.00137112
0.0013874
0.001406
0.00142666
0.00144891
0.00147209
0.00149534
0.00151772
0.00153837
0.00155652
0.00157166
0.00158339
0.00159156
0.00159576
6.63371e-05
6.28648e-05
9.14047e-05
0.000178123
0.000338339
0.000548542
0.000752853
0.000907066
0.00100188
0.00105135
0.00107457
0.00108636
0.00109546
0.00110584
0.00111861
0.00113348
0.00114974
0.00116665
0.00118362
0.00120022
0.00121616
0.00123123
0.0012453
0.00125823
0.00126994
0.00128037
0.00128948
0.0012973
0.00130393
0.00130955
0.00131441
0.00131886
0.00132333
0.0013283
0.00133426
0.00134173
0.00135116
0.00136289
0.00137711
0.0013938
0.00141268
0.00143328
0.00145481
0.00147635
0.00149691
0.00151553
0.00153147
0.00154408
0.001553
0.00155764
6.87193e-05
6.51257e-05
9.63008e-05
0.000189999
0.000361207
0.000583334
0.000797013
0.000956716
0.00105346
0.00110193
0.00112188
0.00112895
0.0011328
0.00113817
0.00114659
0.00115794
0.00117145
0.00118622
0.0012015
0.00121669
0.00123138
0.0012453
0.00125823
0.00127005
0.00128064
0.00128993
0.00129785
0.0013044
0.00130961
0.0013136
0.00131655
0.00131874
0.00132055
0.00132241
0.00132483
0.00132834
0.00133347
0.0013407
0.00135039
0.00136273
0.00137766
0.00139492
0.00141392
0.00143379
0.00145353
0.00147205
0.00148838
0.00150162
0.00151116
0.0015162
7.06541e-05
6.69458e-05
0.000100817
0.000201561
0.000383694
0.000617477
0.000840218
0.00100533
0.00110428
0.00115231
0.0011696
0.00117239
0.00117113
0.00117132
0.00117504
0.00118245
0.00119279
0.00120509
0.00121843
0.00123206
0.00124543
0.00125815
0.00126994
0.00128064
0.00129011
0.00129826
0.00130502
0.00131034
0.00131424
0.00131677
0.00131805
0.0013183
0.00131782
0.00131699
0.00131628
0.00131623
0.00131739
0.00132031
0.0013255
0.0013333
0.0013439
0.00135723
0.00137294
0.00139034
0.00140847
0.00142619
0.00144238
0.00145589
0.00146584
0.00147118
7.21069e-05
6.82914e-05
0.000104914
0.000212756
0.000405724
0.00065087
0.000882328
0.0010527
0.00115407
0.00120219
0.00121749
0.00121657
0.00121051
0.00120551
0.00120428
0.00120733
0.00121407
0.0012235
0.00123457
0.00124641
0.00125831
0.00126975
0.00128037
0.00128993
0.00129826
0.00130525
0.00131082
0.00131493
0.00131755
0.0013187
0.00131846
0.00131697
0.00131448
0.0013113
0.00130785
0.00130462
0.00130216
0.00130107
0.00130191
0.00130518
0.00131123
0.00132022
0.00133205
0.00134622
0.00136195
0.00137812
0.00139352
0.00140681
0.00141687
0.00142235
7.30369e-05
6.91224e-05
0.000108548
0.000223525
0.00042722
0.000683416
0.000923215
0.00109865
0.00120258
0.00125126
0.00126526
0.0012613
0.0012509
0.00124088
0.00123456
0.00123293
0.00123564
0.00124174
0.00125017
0.0012599
0.0012701
0.00128012
0.00128948
0.00129785
0.00130502
0.00131082
0.00131519
0.00131804
0.00131936
0.00131915
0.00131744
0.00131434
0.00131002
0.00130474
0.00129885
0.00129278
0.00128706
0.00128227
0.00127901
0.00127787
0.00127935
0.00128376
0.00129125
0.00130157
0.00131414
0.00132798
0.00134187
0.00135437
0.00136412
0.00136954
7.33973e-05
6.93932e-05
0.000111668
0.000233804
0.0004481
0.000715016
0.000962761
0.00114302
0.00124956
0.00129921
0.00131256
0.0013063
0.00129216
0.00127745
0.00126608
0.00125955
0.00125784
0.00126019
0.00126552
0.00127277
0.00128097
0.00128935
0.0012973
0.0013044
0.00131034
0.00131493
0.00131804
0.00131961
0.00131959
0.00131798
0.0013148
0.00131011
0.00130406
0.00129683
0.0012887
0.00128007
0.00127138
0.0012632
0.00125613
0.00125079
0.00124776
0.00124751
0.00125038
0.00125637
0.00126513
0.00127588
0.00128751
0.00129855
0.00130751
0.00131261
7.31359e-05
6.90523e-05
0.000114216
0.000243523
0.000468276
0.000745573
0.00100085
0.00118565
0.00129479
0.00134573
0.00135903
0.00135123
0.00133405
0.00131516
0.00129894
0.00128743
0.00128102
0.00127919
0.00128099
0.00128532
0.00129115
0.0012976
0.00130393
0.00130961
0.00131424
0.00131755
0.00131936
0.00131959
0.00131818
0.00131511
0.0013104
0.00130411
0.00129633
0.00128721
0.00127698
0.00126596
0.00125454
0.00124324
0.00123261
0.0012233
0.00121591
0.00121104
0.00120913
0.00121044
0.00121486
0.00122185
0.00123048
0.00123936
0.00124697
0.00125144
7.21965e-05
6.80442e-05
0.000116132
0.000252605
0.000487659
0.000774986
0.00103739
0.00122641
0.00133808
0.00139053
0.00140431
0.00139568
0.00137625
0.00135381
0.00133314
0.00131674
0.00130548
0.00129914
0.00129697
0.00129793
0.00130097
0.00130512
0.00130955
0.0013136
0.00131677
0.0013187
0.00131915
0.00131798
0.00131511
0.00131052
0.00130421
0.00129624
0.00128668
0.00127566
0.00126336
0.00125003
0.00123603
0.00122179
0.00120783
0.00119475
0.0011832
0.00117378
0.00116707
0.00116349
0.00116316
0.00116581
0.00117075
0.00117678
0.00118247
0.00118597
7.05206e-05
6.63111e-05
0.00011735
0.000260971
0.000506151
0.000803157
0.00107226
0.00126519
0.00137925
0.00143334
0.00144803
0.00143925
0.00141835
0.00139311
0.00136854
0.00134754
0.00133142
0.00132037
0.00131386
0.00131101
0.0013108
0.00131224
0.00131441
0.00131655
0.00131805
0.00131846
0.00131744
0.0013148
0.0013104
0.00130421
0.00129623
0.00128649
0.00127506
0.00126206
0.00124764
0.00123201
0.00121547
0.00119839
0.00118124
0.00116457
0.00114899
0.00113514
0.00112365
0.00111506
0.0011097
0.00110756
0.00110821
0.00111073
0.00111392
0.0011161
6.80495e-05
6.37948e-05
0.000117805
0.000268539
0.000523657
0.000829984
0.00110538
0.00130188
0.00141816
0.00147395
0.00148986
0.00148151
0.00145991
0.00143267
0.00140489
0.00137976
0.00135898
0.00134314
0.00133203
0.00132499
0.00132109
0.00131936
0.00131886
0.00131874
0.0013183
0.00131697
0.00131434
0.00131011
0.00130411
0.00129624
0.00128649
0.00127487
0.00126147
0.00124637
0.00122973
0.00121172
0.0011926
0.00117269
0.00115239
0.0011322
0.0011127
0.00109451
0.00107828
0.00106462
0.00105404
0.00104673
0.00104259
0.00104101
0.00104116
0.00104168
6.47276e-05
6.044e-05
0.000117432
0.000275226
0.000540077
0.000855368
0.00113666
0.00133639
0.0014547
0.00151216
0.0015295
0.00152206
0.00150046
0.00147203
0.00144182
0.00141319
0.00138814
0.00136763
0.00135181
0.00134027
0.00133228
0.00132695
0.00132333
0.00132055
0.00131782
0.00131448
0.00131002
0.00130406
0.00129633
0.00128668
0.00127506
0.00126147
0.00124596
0.00122863
0.00120961
0.00118909
0.00116726
0.00114443
0.00112094
0.00109722
0.00107381
0.0010513
0.00103033
0.00101155
0.000995573
0.000982822
0.000973463
0.00096729
0.000963905
0.000962444
6.05056e-05
5.61976e-05
0.000116175
0.000280956
0.000555318
0.000879214
0.00116601
0.00136866
0.00148876
0.00154781
0.0015667
0.00156052
0.00153951
0.00151067
0.00147888
0.00144749
0.00141874
0.00139387
0.0013734
0.00135722
0.00134483
0.00133548
0.0013283
0.00132241
0.00131699
0.0013113
0.00130474
0.00129683
0.00128721
0.00127566
0.00126206
0.00124637
0.00122863
0.00120891
0.00118736
0.00116413
0.00113942
0.00111349
0.00108665
0.00105929
0.00103187
0.00100496
0.000979168
0.000955156
0.000933625
0.000915162
0.000900215
0.000888991
0.000881632
0.000877902
5.5345e-05
5.10291e-05
0.000113983
0.00028566
0.000569291
0.000901431
0.00119336
0.00139862
0.00152028
0.00158079
0.00160125
0.00159657
0.00157663
0.00154808
0.00151551
0.00148221
0.00145046
0.00142175
0.00139689
0.00137608
0.00135911
0.00134541
0.00133426
0.00132483
0.00131628
0.00130785
0.00129885
0.0012887
0.00127698
0.00126336
0.00124764
0.00122973
0.00120961
0.00118736
0.00116308
0.00113693
0.0011091
0.00107983
0.00104939
0.00101815
0.000986518
0.000955
0.000924183
0.00089473
0.000867388
0.000842896
0.000821977
0.00080527
0.00079353
0.000787263
4.9223e-05
4.49114e-05
0.000110821
0.000289278
0.000581918
0.000921938
0.00121864
0.00142622
0.00154922
0.00161103
0.00163302
0.00162996
0.00161144
0.00158374
0.00155116
0.00151679
0.00148287
0.00145099
0.0014222
0.00139699
0.00137542
0.00135719
0.00134173
0.00132834
0.00131623
0.00130462
0.00129278
0.00128007
0.00126596
0.00125003
0.00123201
0.00121172
0.00118909
0.00116413
0.00113693
0.00110763
0.00107641
0.0010435
0.00100915
0.000973679
0.000937471
0.000900986
0.000864776
0.000829499
0.000795932
0.00076497
0.00073761
0.000714954
0.00069843
0.000689375
4.21377e-05
3.78423e-05
0.000106675
0.000291771
0.000593136
0.00094067
0.00124181
0.00145143
0.00157556
0.0016385
0.00166191
0.0016605
0.0016436
0.0016172
0.00158526
0.00155062
0.00151538
0.00148115
0.00144908
0.00141989
0.00139392
0.00137112
0.00135116
0.00133347
0.00131739
0.00130216
0.00128706
0.00127138
0.00125454
0.00123603
0.00121547
0.0011926
0.00116726
0.00113942
0.0011091
0.00107641
0.00104151
0.00100461
0.000965948
0.000925805
0.000884526
0.000842533
0.000800349
0.000758628
0.000718195
0.000680116
0.000645702
0.000616566
0.000594864
0.000582801
3.41147e-05
2.98465e-05
0.000101554
0.000293123
0.000602903
0.000957579
0.00126284
0.00147425
0.0015993
0.00166319
0.00168788
0.00168806
0.00167289
0.00164806
0.00161728
0.00158308
0.00154737
0.00151164
0.00147708
0.00144455
0.00141459
0.0013874
0.00136289
0.0013407
0.00132031
0.00130107
0.00128227
0.0012632
0.00124324
0.00122179
0.00119839
0.00117269
0.00114443
0.00111349
0.00107983
0.0010435
0.00100461
0.000963346
0.000919902
0.000874531
0.000827534
0.000779289
0.000730294
0.000681219
0.00063299
0.000586902
0.000544681
0.000508532
0.000481366
0.000466185
2.52104e-05
2.09798e-05
9.55e-05
0.000293344
0.000611204
0.000972641
0.0012817
0.00149469
0.00162049
0.00168514
0.00171095
0.00171261
0.00169914
0.00167605
0.00164677
0.00161358
0.00157815
0.00154179
0.00150561
0.00147052
0.00143717
0.001406
0.00137711
0.00135039
0.0013255
0.00130191
0.00127901
0.00125613
0.00123261
0.00120783
0.00118124
0.00115239
0.00112094
0.00108665
0.00104939
0.00100915
0.000965948
0.000919902
0.000871158
0.000819905
0.000766384
0.000710921
0.000653998
0.000596349
0.000539105
0.000483942
0.000433184
0.000389746
0.00035722
0.000339109
1.55162e-05
1.1332e-05
8.85844e-05
0.000292475
0.000618049
0.000985862
0.00129843
0.0015128
0.00163918
0.00170445
0.0017312
0.00173419
0.00172235
0.00170102
0.00167345
0.00164167
0.00160711
0.00157088
0.00153395
0.00149716
0.00146122
0.00142666
0.0013938
0.00136273
0.0013333
0.00130518
0.00127787
0.00125079
0.0012233
0.00119475
0.00116457
0.0011322
0.00109722
0.00105929
0.00101815
0.000973679
0.000925805
0.000874531
0.000819905
0.000762015
0.000701005
0.000637137
0.000570903
0.000503208
0.000435592
0.000370411
0.000310858
0.000260635
0.000223718
0.000203452
5.17371e-06
1.04341e-06
8.09292e-05
0.000290604
0.000623494
0.000997284
0.00131308
0.00152865
0.00165547
0.00172121
0.00174874
0.00175288
0.00174253
0.00172291
0.00169711
0.00166698
0.00163374
0.00159828
0.00156139
0.00152376
0.00148608
0.00144891
0.00141268
0.00137766
0.0013439
0.00131123
0.00127935
0.00124776
0.00121591
0.0011832
0.00114899
0.0011127
0.00107381
0.00103187
0.000986518
0.000937471
0.000884526
0.000827534
0.000766384
0.000701005
0.000631403
0.00055777
0.000480693
0.000401464
0.000322405
0.000247002
0.000179605
0.000124562
8.55473e-05
6.47004e-05
-5.63114e-06
-9.70211e-06
7.26978e-05
0.000287856
0.000627629
0.00100698
0.00132572
0.00154233
0.00166949
0.00173556
0.00176372
0.00176884
0.00175978
0.00174173
0.00171766
0.00168928
0.00165762
0.0016234
0.00158719
0.00154955
0.001511
0.00147209
0.00143328
0.00139492
0.00135723
0.00132022
0.00128376
0.00124751
0.00121104
0.00117378
0.00113514
0.00109451
0.0010513
0.00100496
0.000955
0.000900986
0.000842533
0.000779289
0.000710921
0.000637137
0.00055777
0.000472992
0.000383683
0.000291926
0.000201382
0.000117161
4.48186e-05
-1.12528e-05
-4.88002e-05
-6.80203e-05
-1.66531e-05
-2.06614e-05
6.41113e-05
0.000284412
0.000630592
0.00101507
0.00133648
0.001554
0.00168138
0.00174769
0.00177633
0.00178224
0.0017743
0.00175763
0.00173515
0.00170847
0.0016785
0.00164579
0.00161074
0.00157372
0.00153511
0.00149534
0.00145481
0.00141392
0.00137294
0.00133205
0.00129125
0.00125038
0.00120913
0.00116707
0.00112365
0.00107828
0.00103033
0.000979168
0.000924183
0.000864776
0.000800349
0.000730294
0.000653998
0.000570903
0.000480693
0.000383683
0.000281437
0.00017743
7.72809e-05
-1.20834e-05
-8.44544e-05
-0.000136577
-0.000168808
-0.000184277
-2.76101e-05
-3.15547e-05
5.54252e-05
0.000280483
0.00063255
0.0010217
0.0013455
0.00156379
0.00169133
0.00175778
0.00178677
0.00179331
0.00178628
0.0017708
0.00174972
0.0017246
0.00169627
0.00166517
0.00163154
0.0015956
0.00155758
0.00151772
0.00147635
0.00143379
0.00139034
0.00134622
0.00130157
0.00125637
0.00121044
0.00116349
0.00111506
0.00106462
0.00101155
0.000955156
0.00089473
0.000829499
0.000758628
0.000681219
0.000596349
0.000503208
0.000401464
0.000291926
0.00017743
6.35093e-05
-4.1978e-05
-0.000130838
-0.000197539
-0.000241317
-0.000265692
-0.0002763
-3.81551e-05
-4.20378e-05
4.69574e-05
0.000276336
0.00063372
0.00102705
0.00135297
0.00157191
0.00169955
0.00176606
0.0017953
0.00180232
0.00179601
0.00178149
0.00176159
0.00173784
0.001711
0.00168145
0.00164933
0.00161472
0.00157769
0.00153837
0.00149691
0.00145353
0.00140847
0.00136195
0.00131414
0.00126513
0.00121486
0.00116316
0.0011097
0.00105404
0.000995573
0.000933625
0.000867388
0.000795932
0.000718195
0.00063299
0.000539105
0.000435592
0.000322405
0.000201382
7.72809e-05
-4.1978e-05
-0.000146815
-0.000229225
-0.000285969
-0.000319466
-0.000335826
-0.000341905
-4.79424e-05
-5.17672e-05
3.90209e-05
0.000272227
0.000634297
0.00103129
0.00135903
0.00157851
0.00170619
0.00177272
0.00180211
0.00180948
0.00180373
0.00178995
0.001771
0.00174838
0.00172283
0.00169466
0.00166397
0.00163074
0.00159493
0.00155652
0.00151553
0.00147205
0.00142619
0.00137812
0.00132798
0.00127588
0.00122185
0.00116581
0.00110756
0.00104673
0.000982822
0.000915162
0.000842896
0.00076497
0.000680116
0.000586902
0.000483942
0.000370411
0.000247002
0.000117161
-1.20834e-05
-0.000130838
-0.000229225
-0.000301209
-0.00034679
-0.000371068
-0.000381319
-0.000384241
-5.65555e-05
-6.03291e-05
3.19955e-05
0.00026847
0.000634523
0.00103461
0.00136387
0.00158378
0.00171147
0.00177797
0.00180745
0.00181505
0.0018097
0.00179649
0.00177826
0.00175652
0.001732
0.00170499
0.00167554
0.00164359
0.001609
0.00157166
0.00153147
0.00148838
0.00144238
0.00139352
0.00134187
0.00128751
0.00123048
0.00117075
0.00110821
0.00104259
0.000973463
0.000900215
0.000821977
0.00073761
0.000645702
0.000544681
0.000433184
0.000310858
0.000179605
4.48186e-05
-8.44544e-05
-0.000197539
-0.000285969
-0.00034679
-0.000382957
-0.000400935
-0.000407753
-0.000409112
-6.36574e-05
-6.73885e-05
2.6175e-05
0.000265277
0.000634519
0.00103707
0.00136753
0.00158776
0.00171544
0.00178189
0.0018114
0.00181915
0.00181407
0.00180125
0.00178355
0.00176245
0.0017387
0.00171258
0.00168412
0.00165322
0.00161971
0.00158339
0.00154408
0.00150162
0.00145589
0.00140681
0.00135437
0.00129855
0.00123936
0.00117678
0.00111073
0.00104101
0.00096729
0.000888991
0.00080527
0.000714954
0.000616566
0.000508532
0.000389746
0.000260635
0.000124562
-1.12528e-05
-0.000136577
-0.000241317
-0.000319466
-0.000371068
-0.000400935
-0.000415663
-0.000421292
-0.000422324
-6.87916e-05
-7.24909e-05
2.19646e-05
0.000262954
0.000634477
0.00103878
0.0013701
0.00159054
0.0017182
0.0017846
0.00181412
0.00182195
0.00181703
0.00180447
0.0017871
0.00176643
0.0017432
0.00171768
0.00168991
0.00165978
0.00162707
0.00159156
0.001553
0.00151116
0.00146584
0.00141687
0.00136412
0.00130751
0.00124697
0.00118247
0.00111392
0.00104116
0.000963905
0.000881632
0.00079353
0.00069843
0.000594864
0.000481366
0.00035722
0.000223718
8.55473e-05
-4.88002e-05
-0.000168808
-0.000265692
-0.000335826
-0.000381319
-0.000407753
-0.000421292
-0.000427003
-0.000428415
-7.16365e-05
-7.53453e-05
1.95795e-05
0.000261586
0.000634365
0.00103964
0.00137141
0.00159195
0.00171957
0.00178594
0.00181546
0.00182333
0.00181849
0.00180605
0.00178885
0.00176839
0.00174542
0.00172022
0.00169282
0.00166309
0.00163082
0.00159576
0.00155764
0.0015162
0.00147118
0.00142235
0.00136954
0.00131261
0.00125144
0.00118597
0.0011161
0.00104168
0.000962444
0.000877902
0.000787263
0.000689375
0.000582801
0.000466185
0.000339109
0.000203452
6.47004e-05
-6.80203e-05
-0.000184277
-0.0002763
-0.000341905
-0.000384241
-0.000409112
-0.000422324
-0.000428415
-0.000430263
)
;

boundaryField
{
    bottomWall
    {
        type            zeroGradient;
    }
    leftWall
    {
        type            zeroGradient;
    }
    topSym
    {
        type            symmetryPlane;
    }
    rightSym
    {
        type            symmetryPlane;
    }
    inlet
    {
        type            cyclic;
    }
    outlet
    {
        type            cyclic;
    }
}


// ************************************************************************* //
