/*--------------------------------*- C++ -*----------------------------------*\
| =========                 |                                                 |
| \\      /  F ield         | OpenFOAM: The Open Source CFD Toolbox           |
|  \\    /   O peration     | Version:  v1912                                 |
|   \\  /    A nd           | Website:  www.openfoam.com                      |
|    \\/     M anipulation  |                                                 |
\*---------------------------------------------------------------------------*/
FoamFile
{
    version     2.0;
    format      ascii;
    class       surfaceScalarField;
    location    "2000";
    object      phi;
}
// * * * * * * * * * * * * * * * * * * * * * * * * * * * * * * * * * * * * * //

dimensions      [0 3 -1 0 0 0 0];
oriented        oriented;


internalField   nonuniform List<scalar> 
4900
(
5.15819e-15
5.3315e-15
-6.8721e-11
6.87262e-11
-2.69455e-10
2.00734e-10
-7.08592e-10
4.39137e-10
-1.47619e-09
7.67602e-10
-2.54588e-09
1.06969e-09
-3.7145e-09
1.16861e-09
-4.62871e-09
9.1422e-10
-4.89175e-09
2.6303e-10
-4.178e-09
-7.13748e-10
-2.3038e-09
-1.8742e-09
7.56512e-10
-3.06031e-09
4.89589e-09
-4.13938e-09
9.92085e-09
-5.02496e-09
1.55996e-08
-5.67875e-09
2.17012e-08
-6.10164e-09
2.80215e-08
-6.32021e-09
3.43956e-08
-6.37417e-09
4.07022e-08
-6.30656e-09
4.68595e-08
-6.15729e-09
5.28193e-08
-5.95984e-09
5.85591e-08
-5.73978e-09
6.4074e-08
-5.51494e-09
6.93702e-08
-5.29618e-09
7.44587e-08
-5.08845e-09
7.93506e-08
-4.89192e-09
8.40535e-08
-4.70293e-09
8.85684e-08
-4.51486e-09
9.2887e-08
-4.31863e-09
9.69902e-08
-4.10318e-09
1.00846e-07
-3.85574e-09
1.04408e-07
-3.56207e-09
1.07615e-07
-3.20664e-09
1.10388e-07
-2.77289e-09
1.12631e-07
-2.24358e-09
1.14233e-07
-1.60139e-09
1.15063e-07
-8.30731e-10
1.14983e-07
8.02221e-11
1.1384e-07
1.14261e-09
1.11475e-07
2.36578e-09
1.07727e-07
3.74747e-09
1.02451e-07
5.276e-09
9.55255e-08
6.92562e-09
8.6865e-08
8.66053e-09
7.6437e-08
1.0428e-08
6.42606e-08
1.21764e-08
5.04167e-08
1.38439e-08
3.50101e-08
1.54066e-08
1.81762e-08
1.68339e-08
1.81762e-08
6.8726e-11
-6.87208e-11
6.87257e-11
6.8726e-11
-1.65808e-10
4.35268e-10
-8.28204e-10
1.10153e-09
-2.06131e-09
2.00071e-09
-3.76086e-09
2.76924e-09
-5.44641e-09
2.85416e-09
-6.33072e-09
1.79854e-09
-5.55627e-09
-5.11422e-10
-2.44011e-09
-3.82991e-09
3.38062e-09
-7.69493e-09
1.19205e-08
-1.16002e-08
2.29048e-08
-1.51237e-08
3.58721e-08
-1.79923e-08
5.02805e-08
-2.00871e-08
6.55939e-08
-2.1415e-08
8.13393e-08
-2.20656e-08
9.71362e-08
-2.2171e-08
1.12704e-07
-2.1874e-08
1.27854e-07
-2.13073e-08
1.42476e-07
-2.05819e-08
1.56519e-07
-1.97834e-08
1.69975e-07
-1.8971e-08
1.8286e-07
-1.81812e-08
1.95202e-07
-1.74305e-08
2.0703e-07
-1.67192e-08
2.18362e-07
-1.60348e-08
2.29201e-07
-1.53546e-08
2.3953e-07
-1.46475e-08
2.49303e-07
-1.38755e-08
2.58442e-07
-1.29947e-08
2.66835e-07
-1.19558e-08
2.74334e-07
-1.07052e-08
2.80747e-07
-9.1857e-09
2.85841e-07
-7.33749e-09
2.8934e-07
-5.10053e-09
2.90929e-07
-2.42036e-09
2.90265e-07
7.44956e-10
2.86973e-07
4.43445e-09
2.80659e-07
8.67949e-09
2.70932e-07
1.34744e-08
2.5743e-07
1.87785e-08
2.39849e-07
2.45063e-08
2.17978e-07
3.05317e-08
1.91726e-07
3.66794e-08
1.61139e-07
4.27641e-08
1.26398e-07
4.85844e-08
8.7766e-08
5.40388e-08
4.55609e-08
5.90389e-08
6.37371e-08
2.00734e-10
-2.69455e-10
4.35268e-10
-1.65808e-10
4.35268e-10
4.35268e-10
-1.0956e-11
1.54776e-09
-1.00562e-09
2.99537e-09
-2.31966e-09
4.08328e-09
-3.19289e-09
3.72739e-09
-2.45106e-09
1.05671e-09
1.11995e-09
-4.08243e-09
8.42825e-09
-1.11382e-08
1.99004e-08
-1.91671e-08
3.54697e-08
-2.71694e-08
5.46728e-08
-3.43268e-08
7.67966e-08
-4.01161e-08
1.01025e-07
-4.43153e-08
1.26556e-07
-4.69465e-08
1.52684e-07
-4.81934e-08
1.78836e-07
-4.83232e-08
2.04587e-07
-4.76251e-08
2.29648e-07
-4.63685e-08
2.53847e-07
-4.47806e-08
2.77101e-07
-4.30368e-08
2.9939e-07
-4.12603e-08
3.20736e-07
-3.95271e-08
3.41177e-07
-3.78719e-08
3.60754e-07
-3.62961e-08
3.79493e-07
-3.47734e-08
3.97394e-07
-3.32557e-08
4.14423e-07
-3.16765e-08
4.30501e-07
-2.9954e-08
4.455e-07
-2.79931e-08
4.59231e-07
-2.5687e-08
4.71444e-07
-2.29187e-08
4.81821e-07
-1.95627e-08
4.89972e-07
-1.54879e-08
4.95433e-07
-1.05621e-08
4.97677e-07
-4.66446e-09
4.96123e-07
2.29964e-09
4.9014e-07
1.04168e-08
4.79065e-07
1.9755e-08
4.62234e-07
3.03056e-08
4.39031e-07
4.19807e-08
4.0894e-07
5.4598e-08
3.71591e-07
6.78804e-08
3.26819e-07
8.14518e-08
2.74684e-07
9.48982e-08
2.15477e-07
1.07792e-07
1.49632e-07
1.19884e-07
7.76749e-08
1.30996e-07
1.41412e-07
4.39137e-10
-7.08592e-10
1.10153e-09
-8.28204e-10
1.54776e-09
-1.0956e-11
1.54776e-09
1.54776e-09
1.19674e-09
3.34639e-09
1.04431e-09
4.23571e-09
2.2366e-09
2.5351e-09
6.30493e-09
-3.01163e-09
1.46553e-08
-1.24328e-08
2.81878e-08
-2.46707e-08
4.71783e-08
-3.81576e-08
7.1339e-08
-5.13302e-08
9.99663e-08
-6.29542e-08
1.32115e-07
-7.22647e-08
1.66756e-07
-7.89567e-08
2.02903e-07
-8.30928e-08
2.39687e-07
-8.4978e-08
2.76407e-07
-8.50431e-08
3.12534e-07
-8.37517e-08
3.47702e-07
-8.15373e-08
3.8169e-07
-7.87679e-08
4.14383e-07
-7.57297e-08
4.45748e-07
-7.26259e-08
4.75804e-07
-6.95827e-08
5.04591e-07
-6.66594e-08
5.32154e-07
-6.38588e-08
5.58518e-07
-6.11373e-08
5.83675e-07
-5.84128e-08
6.0757e-07
-5.55712e-08
6.30087e-07
-5.24709e-08
6.5104e-07
-4.89458e-08
6.70161e-07
-4.48087e-08
6.87095e-07
-3.9853e-08
7.01389e-07
-3.38567e-08
7.12489e-07
-2.65871e-08
7.19735e-07
-1.78089e-08
7.22375e-07
-7.30443e-09
7.19576e-07
5.09863e-09
7.10437e-07
1.95559e-08
6.94006e-07
3.61867e-08
6.69329e-07
5.49821e-08
6.3552e-07
7.57894e-08
5.91826e-07
9.82929e-08
5.37704e-07
1.22002e-07
4.72898e-07
1.46258e-07
3.97476e-07
1.70321e-07
3.11824e-07
1.93443e-07
2.16555e-07
2.15154e-07
1.12411e-07
2.35139e-07
2.53823e-07
7.67602e-10
-1.47619e-09
2.00071e-09
-2.06131e-09
2.99537e-09
-1.00562e-09
3.34639e-09
1.19674e-09
3.34639e-09
3.34639e-09
4.18196e-09
3.40013e-09
7.76141e-09
-1.04435e-09
1.60869e-08
-1.13371e-08
3.05633e-08
-2.69092e-08
5.17591e-08
-4.58665e-08
7.95176e-08
-6.59161e-08
1.13165e-07
-8.49775e-08
1.51709e-07
-1.01498e-07
1.9401e-07
-1.14566e-07
2.38912e-07
-1.23858e-07
2.85338e-07
-1.29519e-07
3.32353e-07
-1.31993e-07
3.79194e-07
-1.31885e-07
4.25281e-07
-1.29838e-07
4.70201e-07
-1.26458e-07
5.13692e-07
-1.22258e-07
5.55608e-07
-1.17646e-07
5.95895e-07
-1.12913e-07
6.34555e-07
-1.08242e-07
6.71617e-07
-1.03722e-07
7.07116e-07
-9.93578e-08
7.41066e-07
-9.50872e-08
7.73441e-07
-9.0788e-08
8.04158e-07
-8.62884e-08
8.3306e-07
-8.1373e-08
8.59902e-07
-7.57874e-08
8.84336e-07
-6.92424e-08
9.059e-07
-6.14177e-08
9.2401e-07
-5.19669e-08
9.3795e-07
-4.05262e-08
9.46867e-07
-2.67266e-08
9.49786e-07
-1.0223e-08
9.45623e-07
9.26178e-09
9.33205e-07
3.19732e-08
9.11295e-07
5.80971e-08
8.78649e-07
8.7628e-08
8.34105e-07
1.20333e-07
7.76669e-07
1.55729e-07
7.0562e-07
1.9305e-07
6.20598e-07
2.3128e-07
5.21666e-07
2.69252e-07
4.09302e-07
3.05808e-07
2.84281e-07
3.40174e-07
1.47563e-07
3.71858e-07
4.01386e-07
1.06969e-09
-2.54588e-09
2.76924e-09
-3.76086e-09
4.08328e-09
-2.31966e-09
4.23571e-09
1.04431e-09
3.40013e-09
4.18196e-09
3.40013e-09
3.40013e-09
7.35149e-09
-4.9957e-09
1.82e-08
-2.21856e-08
3.75205e-08
-4.62297e-08
6.54566e-08
-7.38026e-08
1.01248e-07
-1.01708e-07
1.43705e-07
-1.27435e-07
1.91491e-07
-1.49284e-07
2.43268e-07
-1.66343e-07
2.97784e-07
-1.78375e-07
3.53917e-07
-1.85652e-07
4.10703e-07
-1.88778e-07
4.67347e-07
-1.88529e-07
5.23229e-07
-1.8572e-07
5.7789e-07
-1.81119e-07
6.31016e-07
-1.75385e-07
6.82414e-07
-1.69044e-07
7.31982e-07
-1.62481e-07
7.79682e-07
-1.55942e-07
8.2551e-07
-1.49549e-07
8.69468e-07
-1.43315e-07
9.11539e-07
-1.37159e-07
9.51667e-07
-1.30916e-07
9.89729e-07
-1.2435e-07
1.02552e-06
-1.17163e-07
1.05873e-06
-1.08998e-07
1.08893e-06
-9.94441e-08
1.11556e-06
-8.80463e-08
1.1379e-06
-7.43089e-08
1.15508e-06
-5.77087e-08
1.16607e-06
-3.77139e-08
1.16967e-06
-1.3822e-08
1.16455e-06
1.43775e-08
1.14929e-06
4.72397e-08
1.12235e-06
8.50315e-08
1.08223e-06
1.27756e-07
1.02747e-06
1.75088e-07
9.56857e-07
2.26343e-07
8.69481e-07
2.80426e-07
7.64876e-07
3.35885e-07
6.43093e-07
3.91035e-07
5.04686e-07
4.44215e-07
3.50596e-07
4.94264e-07
1.81993e-07
5.40462e-07
5.83378e-07
1.16861e-09
-3.7145e-09
2.85416e-09
-5.44641e-09
3.72739e-09
-3.19289e-09
2.5351e-09
2.2366e-09
-1.04435e-09
7.76141e-09
-4.9957e-09
7.35149e-09
-4.9957e-09
-4.9957e-09
3.3849e-09
-3.05662e-08
2.2627e-08
-6.54719e-08
5.29947e-08
-1.0417e-07
9.33541e-08
-1.42067e-07
1.42004e-07
-1.76084e-07
1.97161e-07
-2.04441e-07
2.57174e-07
-2.26356e-07
3.20586e-07
-2.41786e-07
3.86142e-07
-2.51208e-07
4.52784e-07
-2.5542e-07
5.19634e-07
-2.55379e-07
5.85988e-07
-2.52074e-07
6.51299e-07
-2.46429e-07
7.15163e-07
-2.39249e-07
7.77297e-07
-2.31178e-07
8.37516e-07
-2.227e-07
8.95705e-07
-2.14131e-07
9.51792e-07
-2.05636e-07
1.00572e-06
-1.97242e-07
1.05741e-06
-1.88855e-07
1.10677e-06
-1.80269e-07
1.1536e-06
-1.71186e-07
1.19766e-06
-1.61216e-07
1.23855e-06
-1.49889e-07
1.27576e-06
-1.36661e-07
1.30864e-06
-1.20922e-07
1.33634e-06
-1.02005e-07
1.35783e-06
-7.92029e-08
1.37191e-06
-5.17925e-08
1.37717e-06
-1.90854e-08
1.37206e-06
1.94916e-08
1.35488e-06
6.44213e-08
1.32384e-06
1.16066e-07
1.27715e-06
1.74444e-07
1.21312e-06
2.39127e-07
1.13026e-06
3.09199e-07
1.0275e-06
3.83182e-07
9.04273e-07
4.59117e-07
7.606e-07
5.34707e-07
5.97116e-07
6.077e-07
4.14922e-07
6.76457e-07
2.15414e-07
7.3997e-07
7.98793e-07
9.1422e-10
-4.62871e-09
1.79854e-09
-6.33072e-09
1.05671e-09
-2.45106e-09
-3.01163e-09
6.30493e-09
-1.13371e-08
1.60869e-08
-2.21856e-08
1.82e-08
-3.05662e-08
3.3849e-09
-3.05662e-08
-3.05662e-08
-1.81052e-08
-7.79328e-08
8.15272e-09
-1.30428e-07
4.74246e-08
-1.81339e-07
9.78311e-08
-2.26491e-07
1.57173e-07
-2.63783e-07
2.23345e-07
-2.92528e-07
2.945e-07
-3.1294e-07
3.69068e-07
-3.25777e-07
4.45746e-07
-3.32097e-07
5.23453e-07
-3.33086e-07
6.01309e-07
-3.29931e-07
6.78609e-07
-3.2373e-07
7.548e-07
-3.1544e-07
8.2946e-07
-3.05838e-07
9.02274e-07
-2.95514e-07
9.73007e-07
-2.84865e-07
1.04148e-06
-2.74111e-07
1.10754e-06
-2.63304e-07
1.17104e-06
-2.52346e-07
1.23177e-06
-2.41e-07
1.28948e-06
-2.28903e-07
1.34384e-06
-2.15575e-07
1.39438e-06
-2.0043e-07
1.4405e-06
-1.82778e-07
1.48142e-06
-1.6184e-07
1.51617e-06
-1.3676e-07
1.54359e-06
-1.06622e-07
1.56229e-06
-7.0489e-08
1.57066e-06
-2.74594e-08
1.56692e-06
2.32328e-08
1.54913e-06
8.2215e-08
1.51523e-06
1.49959e-07
1.46318e-06
2.26503e-07
1.39099e-06
3.11308e-07
1.29699e-06
4.03198e-07
1.17992e-06
5.00261e-07
1.03907e-06
5.9996e-07
8.74485e-07
6.99295e-07
6.86856e-07
7.95328e-07
4.77462e-07
8.85851e-07
2.47937e-07
9.69495e-07
1.04673e-06
2.6303e-10
-4.89175e-09
-5.11422e-10
-5.55627e-09
-4.08243e-09
1.11995e-09
-1.24328e-08
1.46553e-08
-2.69092e-08
3.05633e-08
-4.62297e-08
3.75205e-08
-6.54719e-08
2.2627e-08
-7.79328e-08
-1.81052e-08
-7.79328e-08
-7.79328e-08
-6.23727e-08
-1.45988e-07
-3.07644e-08
-2.12947e-07
1.55641e-08
-2.72819e-07
7.43819e-08
-3.22601e-07
1.43223e-07
-3.61369e-07
2.19755e-07
-3.89473e-07
3.01933e-07
-4.07954e-07
3.88024e-07
-4.18189e-07
4.76594e-07
-4.21656e-07
5.66462e-07
-4.19799e-07
6.56671e-07
-4.13938e-07
7.46445e-07
-4.05214e-07
8.35168e-07
-3.9456e-07
9.22346e-07
-3.82692e-07
1.00759e-06
-3.70105e-07
1.09056e-06
-3.57087e-07
1.17099e-06
-3.43729e-07
1.24858e-06
-3.2994e-07
1.32304e-06
-3.15458e-07
1.394e-06
-2.99865e-07
1.46102e-06
-2.82592e-07
1.52352e-06
-2.62932e-07
1.58079e-06
-2.40047e-07
1.63193e-06
-2.12977e-07
1.67583e-06
-1.80661e-07
1.71116e-06
-1.41959e-07
1.73637e-06
-9.5696e-08
1.74964e-06
-4.07331e-08
1.74896e-06
2.39168e-08
1.73213e-06
9.90413e-08
1.69686e-06
1.85233e-07
1.64081e-06
2.82556e-07
1.56176e-06
3.90353e-07
1.4578e-06
5.07159e-07
1.32749e-06
6.30577e-07
1.17003e-06
7.57419e-07
9.85427e-07
8.83895e-07
7.74473e-07
1.00628e-06
5.38622e-07
1.1217e-06
2.79774e-07
1.22834e-06
1.3265e-06
-7.13748e-10
-4.178e-09
-3.82991e-09
-2.44011e-09
-1.11382e-08
8.42825e-09
-2.46707e-08
2.81878e-08
-4.58665e-08
5.17591e-08
-7.38026e-08
6.54566e-08
-1.0417e-07
5.29947e-08
-1.30428e-07
8.15272e-09
-1.45988e-07
-6.23727e-08
-1.45988e-07
-1.45988e-07
-1.28055e-07
-2.30881e-07
-9.21161e-08
-3.08758e-07
-3.97057e-08
-3.75011e-07
2.68004e-08
-4.27875e-07
1.04769e-07
-4.67442e-07
1.91666e-07
-4.94851e-07
2.85223e-07
-5.11746e-07
3.83501e-07
-5.19934e-07
4.84879e-07
-5.21177e-07
5.88021e-07
-5.17081e-07
6.9184e-07
-5.09033e-07
7.95451e-07
-4.98171e-07
8.98132e-07
-4.85372e-07
9.99286e-07
-4.71259e-07
1.09841e-06
-4.56207e-07
1.19504e-06
-4.40361e-07
1.28874e-06
-4.23648e-07
1.37908e-06
-4.05792e-07
1.46554e-06
-3.86321e-07
1.54753e-06
-3.64584e-07
1.62435e-06
-3.39751e-07
1.69513e-06
-3.10829e-07
1.75882e-06
-2.76673e-07
1.81417e-06
-2.36003e-07
1.85965e-06
-1.87439e-07
1.8935e-06
-1.29553e-07
1.91372e-06
-6.09454e-08
1.91802e-06
1.96163e-08
1.90396e-06
1.13095e-07
1.86898e-06
2.20212e-07
1.81048e-06
3.41062e-07
1.72597e-06
4.74856e-07
1.61332e-06
6.19815e-07
1.47089e-06
7.73004e-07
1.2978e-06
9.30512e-07
1.09403e-06
1.08766e-06
8.60468e-07
1.23984e-06
5.98766e-07
1.3834e-06
3.11116e-07
1.51599e-06
1.63762e-06
-1.8742e-09
-2.30379e-09
-7.69493e-09
3.38062e-09
-1.91671e-08
1.99004e-08
-3.81576e-08
4.71783e-08
-6.59161e-08
7.95176e-08
-1.01708e-07
1.01248e-07
-1.42067e-07
9.33541e-08
-1.81339e-07
4.74246e-08
-2.12947e-07
-3.07644e-08
-2.30881e-07
-1.28055e-07
-2.30881e-07
-2.30881e-07
-2.10936e-07
-3.28702e-07
-1.71108e-07
-4.1484e-07
-1.1296e-07
-4.86023e-07
-3.89224e-08
-5.41479e-07
4.82454e-08
-5.82018e-07
1.45812e-07
-6.09313e-07
2.51278e-07
-6.254e-07
3.62464e-07
-6.32363e-07
4.77529e-07
-6.32146e-07
5.94948e-07
-6.26452e-07
7.13467e-07
-6.1669e-07
8.32057e-07
-6.03962e-07
9.49862e-07
-5.89064e-07
1.06615e-06
-5.72497e-07
1.18028e-06
-5.54484e-07
1.29162e-06
-5.34988e-07
1.39955e-06
-5.13726e-07
1.50341e-06
-4.90179e-07
1.60243e-06
-4.6361e-07
1.69575e-06
-4.33066e-07
1.78231e-06
-3.97394e-07
1.86089e-06
-3.5525e-07
1.93002e-06
-3.05128e-07
1.98797e-06
-2.45394e-07
2.03276e-06
-1.74346e-07
2.06213e-06
-9.03117e-08
2.07353e-06
8.21037e-09
2.06425e-06
1.22376e-07
2.03143e-06
2.53033e-07
1.97219e-06
4.00307e-07
1.88378e-06
5.6327e-07
1.7638e-06
7.39791e-07
1.61046e-06
9.26347e-07
1.42275e-06
1.11822e-06
1.20065e-06
1.30976e-06
9.45151e-07
1.49534e-06
6.58125e-07
1.67043e-06
3.42089e-07
1.83203e-06
1.97971e-06
-3.06031e-09
7.56512e-10
-1.16002e-08
1.19205e-08
-2.71694e-08
3.54697e-08
-5.13302e-08
7.1339e-08
-8.49775e-08
1.13165e-07
-1.27435e-07
1.43705e-07
-1.76084e-07
1.42004e-07
-2.26491e-07
9.78311e-08
-2.72819e-07
1.55641e-08
-3.08758e-07
-9.21161e-08
-3.28702e-07
-2.10936e-07
-3.28702e-07
-3.28702e-07
-3.0687e-07
-4.36672e-07
-2.63255e-07
-5.29638e-07
-1.99383e-07
-6.05352e-07
-1.17697e-07
-6.63704e-07
-2.10655e-08
-7.05944e-07
8.75943e-08
-7.34059e-07
2.05547e-07
-7.50315e-07
3.30361e-07
-7.56961e-07
4.59952e-07
-7.56043e-07
5.92572e-07
-7.4931e-07
7.26772e-07
-7.38162e-07
8.61345e-07
-7.23637e-07
9.95269e-07
-7.06421e-07
1.12765e-06
-6.86862e-07
1.25765e-06
-6.6499e-07
1.38446e-06
-6.40533e-07
1.50721e-06
-6.12936e-07
1.62498e-06
-5.81375e-07
1.73668e-06
-5.44768e-07
1.84108e-06
-5.0179e-07
1.93671e-06
-4.50888e-07
2.0219e-06
-3.90312e-07
2.09466e-06
-3.18155e-07
2.15274e-06
-2.32428e-07
2.19359e-06
-1.31163e-07
2.21438e-06
-1.25763e-08
2.21205e-06
1.24702e-07
2.18345e-06
2.81639e-07
2.12536e-06
4.5839e-07
2.03476e-06
6.53869e-07
1.909e-06
8.65557e-07
1.74606e-06
1.08928e-06
1.54485e-06
1.31944e-06
1.30532e-06
1.54928e-06
1.02859e-06
1.77208e-06
7.16761e-07
1.98226e-06
3.72733e-07
2.17606e-06
2.35244e-06
-4.13938e-09
4.89589e-09
-1.51237e-08
2.29048e-08
-3.43268e-08
5.46728e-08
-6.29542e-08
9.99663e-08
-1.01498e-07
1.51709e-07
-1.49284e-07
1.91491e-07
-2.04441e-07
1.97161e-07
-2.63783e-07
1.57173e-07
-3.22601e-07
7.43819e-08
-3.75011e-07
-3.97057e-08
-4.1484e-07
-1.71108e-07
-4.36672e-07
-3.0687e-07
-4.36672e-07
-4.36672e-07
-4.12954e-07
-5.53356e-07
-3.65498e-07
-6.52808e-07
-2.95763e-07
-7.33438e-07
-2.06196e-07
-7.95512e-07
-9.97514e-08
-8.40504e-07
2.04764e-08
-8.70543e-07
1.5152e-07
-8.88004e-07
2.90689e-07
-8.95212e-07
4.35634e-07
-8.94256e-07
5.8436e-07
-8.86887e-07
7.35183e-07
-8.74459e-07
8.86682e-07
-8.5792e-07
1.03763e-06
-8.3781e-07
1.18692e-06
-8.1428e-07
1.3335e-06
-7.87112e-07
1.4763e-06
-7.55737e-07
1.61418e-06
-7.19254e-07
1.74586e-06
-6.76449e-07
1.86988e-06
-6.25814e-07
1.98456e-06
-5.65567e-07
2.08794e-06
-4.93692e-07
2.17778e-06
-4.07988e-07
2.2515e-06
-3.06151e-07
2.30623e-06
-1.85896e-07
2.33879e-06
-4.51381e-08
2.34576e-06
1.1773e-07
2.32362e-06
3.03784e-07
2.26881e-06
5.13202e-07
2.17796e-06
7.44717e-07
2.04814e-06
9.9538e-07
1.87712e-06
1.2603e-06
1.66367e-06
1.53289e-06
1.40775e-06
1.8052e-06
1.11058e-06
2.06925e-06
7.7456e-07
2.31828e-06
4.02996e-07
2.54762e-06
2.75544e-06
-5.02496e-09
9.92085e-09
-1.79923e-08
3.58721e-08
-4.01161e-08
7.67966e-08
-7.22647e-08
1.32115e-07
-1.14566e-07
1.9401e-07
-1.66343e-07
2.43268e-07
-2.26356e-07
2.57174e-07
-2.92528e-07
2.23345e-07
-3.61369e-07
1.43223e-07
-4.27875e-07
2.68004e-08
-4.86023e-07
-1.1296e-07
-5.29638e-07
-2.63255e-07
-5.53356e-07
-4.12954e-07
-5.53356e-07
-5.53356e-07
-5.27701e-07
-6.78463e-07
-4.76278e-07
-7.84861e-07
-4.00474e-07
-8.71317e-07
-3.02722e-07
-9.38255e-07
-1.86059e-07
-9.87206e-07
-5.37405e-08
-1.02032e-06
9.10391e-08
-1.03999e-06
2.45321e-07
-1.04854e-06
4.06476e-07
-1.04804e-06
5.72226e-07
-1.04021e-06
7.40617e-07
-1.02631e-06
9.09969e-07
-1.00716e-06
1.0788e-06
-9.83108e-07
1.24573e-06
-9.54049e-07
1.40945e-06
-9.19449e-07
1.56856e-06
-8.78363e-07
1.72156e-06
-8.29457e-07
1.86678e-06
-7.71033e-07
2.00229e-06
-7.01068e-07
2.12584e-06
-6.1725e-07
2.23491e-06
-5.17051e-07
2.32658e-06
-3.9782e-07
2.3976e-06
-2.56925e-07
2.44442e-06
-9.19518e-08
2.46317e-06
9.89739e-08
2.44993e-06
3.17032e-07
2.40072e-06
5.62411e-07
2.3118e-06
8.33636e-07
2.1799e-06
1.12728e-06
2.00255e-06
1.43765e-06
1.77836e-06
1.75708e-06
1.50728e-06
2.07628e-06
1.19067e-06
2.38585e-06
8.31228e-07
2.67772e-06
4.32732e-07
2.94612e-06
3.18817e-06
-5.67875e-09
1.55996e-08
-2.00871e-08
5.02805e-08
-4.43153e-08
1.01025e-07
-7.89567e-08
1.66756e-07
-1.23858e-07
2.38912e-07
-1.78375e-07
2.97784e-07
-2.41786e-07
3.20586e-07
-3.1294e-07
2.945e-07
-3.89473e-07
2.19755e-07
-4.67442e-07
1.04769e-07
-5.41479e-07
-3.89224e-08
-6.05352e-07
-1.99383e-07
-6.52808e-07
-3.65498e-07
-6.78463e-07
-5.27701e-07
-6.78463e-07
-6.78463e-07
-6.50792e-07
-8.12532e-07
-5.95236e-07
-9.26873e-07
-5.13101e-07
-1.02039e-06
-4.06805e-07
-1.0935e-06
-2.79452e-07
-1.14768e-06
-1.34454e-07
-1.18499e-06
2.47681e-08
-1.20776e-06
1.94979e-07
-1.21825e-06
3.73246e-07
-1.21848e-06
5.56974e-07
-1.21004e-06
7.43897e-07
-1.19408e-06
9.32018e-07
-1.17123e-06
1.11954e-06
-1.14157e-06
1.30476e-06
-1.10467e-06
1.48601e-06
-1.05961e-06
1.6615e-06
-1.00496e-06
1.82932e-06
-9.38848e-07
1.98726e-06
-8.59012e-07
2.13284e-06
-7.62823e-07
2.26318e-06
-6.47391e-07
2.37503e-06
-5.09676e-07
2.46476e-06
-3.46653e-07
2.52835e-06
-1.55544e-07
2.56149e-06
6.58327e-08
2.55975e-06
3.18772e-07
2.5187e-06
6.0346e-07
2.43415e-06
9.18188e-07
2.30244e-06
1.25899e-06
2.1208e-06
1.6193e-06
1.88765e-06
1.99023e-06
1.60293e-06
2.361e-06
1.26813e-06
2.72065e-06
8.86285e-07
3.05956e-06
4.61703e-07
3.3707e-06
3.64987e-06
-6.10164e-09
2.17012e-08
-2.1415e-08
6.55939e-08
-4.69465e-08
1.26556e-07
-8.30928e-08
2.02903e-07
-1.29519e-07
2.85338e-07
-1.85652e-07
3.53917e-07
-2.51208e-07
3.86142e-07
-3.25777e-07
3.69068e-07
-4.07954e-07
3.01933e-07
-4.94851e-07
1.91666e-07
-5.82018e-07
4.82454e-08
-6.63704e-07
-1.17697e-07
-7.33438e-07
-2.95763e-07
-7.84861e-07
-4.76278e-07
-8.12532e-07
-6.50792e-07
-8.12532e-07
-8.12532e-07
-7.82747e-07
-9.56658e-07
-7.22854e-07
-1.08028e-06
-6.34072e-07
-1.18228e-06
-5.18803e-07
-1.26295e-06
-3.80212e-07
-1.32358e-06
-2.21866e-07
-1.36611e-06
-4.74175e-08
-1.3927e-06
1.39608e-07
-1.4055e-06
3.35944e-07
-1.40638e-06
5.38643e-07
-1.39678e-06
7.45068e-07
-1.37765e-06
9.52849e-07
-1.34935e-06
1.1598e-06
-1.31162e-06
1.36382e-06
-1.26363e-06
1.56278e-06
-1.20392e-06
1.75445e-06
-1.13052e-06
1.93635e-06
-1.0409e-06
2.10567e-06
-9.32147e-07
2.25924e-06
-8.00966e-07
2.39346e-06
-6.43892e-07
2.50426e-06
-4.57457e-07
2.58719e-06
-2.38467e-07
2.6374e-06
1.56158e-08
2.64994e-06
3.0624e-07
2.61982e-06
6.33577e-07
2.54234e-06
9.95665e-07
2.41339e-06
1.38794e-06
2.22983e-06
1.80286e-06
1.98986e-06
2.23019e-06
1.69336e-06
2.65751e-06
1.34196e-06
3.07205e-06
9.39062e-07
3.46246e-06
4.8957e-07
3.82019e-06
4.13944e-06
-6.32021e-09
2.80215e-08
-2.20656e-08
8.13393e-08
-4.81934e-08
1.52684e-07
-8.4978e-08
2.39687e-07
-1.31993e-07
3.32353e-07
-1.88778e-07
4.10703e-07
-2.5542e-07
4.52784e-07
-3.32097e-07
4.45746e-07
-4.18189e-07
3.88024e-07
-5.11746e-07
2.85223e-07
-6.09313e-07
1.45812e-07
-7.05944e-07
-2.10655e-08
-7.95512e-07
-2.06196e-07
-8.71317e-07
-4.00474e-07
-9.26873e-07
-5.95236e-07
-9.56658e-07
-7.82747e-07
-9.56658e-07
-9.56658e-07
-9.24643e-07
-1.1123e-06
-8.60168e-07
-1.24676e-06
-7.64369e-07
-1.35875e-06
-6.39621e-07
-1.44833e-06
-4.89161e-07
-1.51657e-06
-3.16709e-07
-1.56515e-06
-1.26165e-07
-1.59605e-06
7.86315e-08
-1.61117e-06
2.94048e-07
-1.6122e-06
5.16732e-07
-1.60034e-06
7.4362e-07
-1.57624e-06
9.71892e-07
-1.53989e-06
1.19889e-06
-1.49062e-06
1.42202e-06
-1.42705e-06
1.63861e-06
-1.34711e-06
1.84584e-06
-1.24813e-06
2.04057e-06
-1.12687e-06
2.21927e-06
-9.79672e-07
2.37798e-06
-8.02597e-07
2.51221e-06
-5.91693e-07
2.61704e-06
-3.4329e-07
2.68709e-06
-5.44366e-08
2.71679e-06
2.76537e-07
2.70058e-06
6.49787e-07
2.63316e-06
1.06309e-06
2.50986e-06
1.51123e-06
2.32712e-06
1.9856e-06
2.08286e-06
2.47445e-06
1.77685e-06
2.96352e-06
1.41087e-06
3.43803e-06
9.88689e-07
3.88464e-06
5.15891e-07
4.29299e-06
4.65533e-06
-6.37417e-09
3.43956e-08
-2.2171e-08
9.71362e-08
-4.83232e-08
1.78836e-07
-8.50431e-08
2.76407e-07
-1.31885e-07
3.79194e-07
-1.88529e-07
4.67347e-07
-2.55379e-07
5.19634e-07
-3.33086e-07
5.23453e-07
-4.21656e-07
4.76594e-07
-5.19934e-07
3.83501e-07
-6.254e-07
2.51278e-07
-7.34059e-07
8.75943e-08
-8.40504e-07
-9.97514e-08
-9.38255e-07
-3.02722e-07
-1.02039e-06
-5.13101e-07
-1.08028e-06
-7.22854e-07
-1.1123e-06
-9.24643e-07
-1.1123e-06
-1.1123e-06
-1.07792e-06
-1.28114e-06
-1.00858e-06
-1.42808e-06
-9.05325e-07
-1.55158e-06
-7.7052e-07
-1.65137e-06
-6.07468e-07
-1.7282e-06
-4.20066e-07
-1.78345e-06
-2.12477e-07
-1.81876e-06
1.11124e-08
-1.83579e-06
2.46656e-07
-1.83588e-06
4.90341e-07
-1.81992e-06
7.38602e-07
-1.78816e-06
9.88086e-07
-1.74011e-06
1.23557e-06
-1.67453e-06
1.47784e-06
-1.58938e-06
1.71158e-06
-1.48188e-06
1.93325e-06
-1.34854e-06
2.13892e-06
-1.18534e-06
2.32421e-06
-9.87891e-07
2.48423e-06
-7.51711e-07
2.61355e-06
-4.72603e-07
2.70625e-06
-1.47144e-07
2.75614e-06
2.26647e-07
2.757e-06
6.4893e-07
2.70286e-06
1.11723e-06
2.58845e-06
1.62565e-06
2.40967e-06
2.16438e-06
2.16408e-06
2.72004e-06
1.85131e-06
3.27629e-06
1.47324e-06
3.8161e-06
1.03408e-06
4.32381e-06
5.40112e-07
4.78696e-06
5.19544e-06
-6.30656e-09
4.07022e-08
-2.1874e-08
1.12704e-07
-4.76251e-08
2.04587e-07
-8.37517e-08
3.12534e-07
-1.29838e-07
4.25281e-07
-1.8572e-07
5.23229e-07
-2.52074e-07
5.85988e-07
-3.29931e-07
6.01309e-07
-4.19799e-07
5.66462e-07
-5.21177e-07
4.84879e-07
-6.32363e-07
3.62464e-07
-7.50315e-07
2.05547e-07
-8.70543e-07
2.04764e-08
-9.87206e-07
-1.86059e-07
-1.0935e-06
-4.06805e-07
-1.18228e-06
-6.34072e-07
-1.24676e-06
-8.60168e-07
-1.28114e-06
-1.07792e-06
-1.28114e-06
-1.28114e-06
-1.24423e-06
-1.46499e-06
-1.1697e-06
-1.62611e-06
-1.0585e-06
-1.76257e-06
-9.12982e-07
-1.87372e-06
-7.36537e-07
-1.95989e-06
-5.33257e-07
-2.02204e-06
-3.07603e-07
-2.06144e-06
-6.41547e-08
-2.07933e-06
1.92575e-07
-2.07665e-06
4.58239e-07
-2.05382e-06
7.28686e-07
-2.01055e-06
9.99927e-07
-1.94577e-06
1.26806e-06
-1.85751e-06
1.52913e-06
-1.74296e-06
1.77905e-06
-1.59846e-06
2.0134e-06
-1.41969e-06
2.22733e-06
-1.20182e-06
2.41547e-06
-9.39851e-07
2.57189e-06
-6.29022e-07
2.69013e-06
-2.65383e-07
2.76333e-06
1.53446e-07
2.78458e-06
6.27676e-07
2.74721e-06
1.15461e-06
2.64524e-06
1.72762e-06
2.47396e-06
2.33566e-06
2.23048e-06
2.96351e-06
1.91423e-06
3.59255e-06
1.52717e-06
4.20316e-06
1.07391e-06
4.77706e-06
5.61554e-07
5.29931e-06
5.757e-06
-6.15729e-09
4.68595e-08
-2.13073e-08
1.27854e-07
-4.63685e-08
2.29648e-07
-8.15373e-08
3.47702e-07
-1.26458e-07
4.70201e-07
-1.81119e-07
5.7789e-07
-2.46429e-07
6.51299e-07
-3.2373e-07
6.78609e-07
-4.13938e-07
6.56671e-07
-5.17081e-07
5.88021e-07
-6.32146e-07
4.77529e-07
-7.56961e-07
3.30361e-07
-8.88004e-07
1.5152e-07
-1.02032e-06
-5.37404e-08
-1.14768e-06
-2.79452e-07
-1.26295e-06
-5.18803e-07
-1.35875e-06
-7.64369e-07
-1.42808e-06
-1.00858e-06
-1.46499e-06
-1.24423e-06
-1.46499e-06
-1.46499e-06
-1.42538e-06
-1.66572e-06
-1.34529e-06
-1.84266e-06
-1.22559e-06
-1.99342e-06
-1.06863e-06
-2.11685e-06
-8.77916e-07
-2.21276e-06
-6.57764e-07
-2.28159e-06
-4.12978e-07
-2.32412e-06
-1.48583e-07
-2.34105e-06
1.30366e-07
-2.33277e-06
4.18902e-07
-2.29909e-06
7.12186e-07
-2.23905e-06
1.00548e-06
-2.1508e-06
1.29406e-06
-2.03154e-06
1.57311e-06
-1.87752e-06
1.83759e-06
-1.68417e-06
2.08207e-06
-1.4463e-06
2.30063e-06
-1.15841e-06
2.48679e-06
-8.15175e-07
2.63349e-06
-4.12087e-07
2.73323e-06
5.37032e-08
2.77837e-06
5.82534e-07
2.76148e-06
1.1715e-06
2.67581e-06
1.81328e-06
2.51598e-06
2.49549e-06
2.27856e-06
3.20093e-06
1.96269e-06
3.90843e-06
1.57036e-06
4.59549e-06
1.10662e-06
5.2408e-06
5.79412e-07
5.82652e-06
6.33641e-06
-5.95984e-09
5.28193e-08
-2.05819e-08
1.42476e-07
-4.47806e-08
2.53847e-07
-7.87679e-08
3.8169e-07
-1.22258e-07
5.13692e-07
-1.75385e-07
6.31016e-07
-2.39249e-07
7.15163e-07
-3.1544e-07
7.548e-07
-4.05214e-07
7.46445e-07
-5.09033e-07
6.9184e-07
-6.26452e-07
5.94948e-07
-7.56043e-07
4.59952e-07
-8.95212e-07
2.90689e-07
-1.03999e-06
9.10391e-08
-1.18499e-06
-1.34454e-07
-1.32358e-06
-3.80212e-07
-1.44833e-06
-6.39621e-07
-1.55158e-06
-9.05325e-07
-1.62611e-06
-1.1697e-06
-1.66572e-06
-1.42538e-06
-1.66572e-06
-1.66572e-06
-1.62321e-06
-1.88518e-06
-1.53715e-06
-2.07948e-06
-1.40835e-06
-2.24566e-06
-1.23916e-06
-2.38194e-06
-1.03324e-06
-2.48751e-06
-7.95176e-07
-2.56218e-06
-5.30165e-07
-2.60606e-06
-2.43753e-07
-2.61918e-06
5.83756e-08
-2.60122e-06
3.70532e-07
-2.55121e-06
6.87067e-07
-2.46734e-06
1.00235e-06
-2.34683e-06
1.31071e-06
-2.18588e-06
1.6063e-06
-1.97975e-06
1.88295e-06
-1.72295e-06
2.13407e-06
-1.40953e-06
2.35254e-06
-1.03365e-06
2.53068e-06
-5.90219e-07
2.66028e-06
-7.58968e-08
2.73294e-06
5.09867e-07
2.74046e-06
1.16399e-06
2.67528e-06
1.87846e-06
2.53126e-06
2.63951e-06
2.30435e-06
3.42783e-06
1.99333e-06
4.21945e-06
1.60019e-06
4.98863e-06
1.13038e-06
5.71062e-06
5.92738e-07
6.36416e-06
6.92915e-06
-5.73978e-09
5.85591e-08
-1.97834e-08
1.56519e-07
-4.30368e-08
2.77101e-07
-7.57297e-08
4.14383e-07
-1.17646e-07
5.55608e-07
-1.69044e-07
6.82414e-07
-2.31178e-07
7.77297e-07
-3.05838e-07
8.2946e-07
-3.9456e-07
8.35168e-07
-4.98171e-07
7.95451e-07
-6.1669e-07
7.13467e-07
-7.4931e-07
5.92572e-07
-8.94256e-07
4.35634e-07
-1.04854e-06
2.45321e-07
-1.20776e-06
2.47681e-08
-1.36611e-06
-2.21866e-07
-1.51657e-06
-4.89161e-07
-1.65137e-06
-7.7052e-07
-1.76257e-06
-1.0585e-06
-1.84266e-06
-1.34529e-06
-1.88518e-06
-1.62321e-06
-1.88518e-06
-1.88518e-06
-1.83954e-06
-2.12512e-06
-1.74708e-06
-2.33811e-06
-1.60852e-06
-2.5205e-06
-1.42628e-06
-2.66976e-06
-1.20418e-06
-2.78428e-06
-9.47133e-07
-2.8631e-06
-6.60816e-07
-2.9055e-06
-3.5138e-07
-2.91066e-06
-2.52404e-08
-2.87735e-06
3.11065e-07
-2.80365e-06
6.50938e-07
-2.6867e-06
9.8771e-07
-2.52265e-06
1.31457e-06
-2.30661e-06
1.62447e-06
-2.03285e-06
1.90998e-06
-1.69504e-06
2.16319e-06
-1.28686e-06
2.37567e-06
-8.02701e-07
2.53849e-06
-2.38719e-07
2.64245e-06
4.05911e-07
2.67851e-06
1.12793e-06
2.63829e-06
1.91868e-06
2.51483e-06
2.76297e-06
2.30343e-06
3.63923e-06
2.00239e-06
4.52048e-06
1.61367e-06
5.37735e-06
1.1431e-06
6.18119e-06
6.00441e-07
6.90682e-06
7.52959e-06
-5.51494e-09
6.4074e-08
-1.8971e-08
1.69975e-07
-4.12603e-08
2.9939e-07
-7.26259e-08
4.45748e-07
-1.12913e-07
5.95895e-07
-1.62481e-07
7.31982e-07
-2.227e-07
8.37516e-07
-2.95514e-07
9.02274e-07
-3.82692e-07
9.22346e-07
-4.85372e-07
8.98132e-07
-6.03962e-07
8.32057e-07
-7.38162e-07
7.26772e-07
-8.86887e-07
5.8436e-07
-1.04804e-06
4.06476e-07
-1.21825e-06
1.94979e-07
-1.3927e-06
-4.74175e-08
-1.56515e-06
-3.16709e-07
-1.7282e-06
-6.07468e-07
-1.87372e-06
-9.12982e-07
-1.99342e-06
-1.22559e-06
-2.07948e-06
-1.53715e-06
-2.12512e-06
-1.83954e-06
-2.12512e-06
-2.12512e-06
-2.07612e-06
-2.38711e-06
-1.97679e-06
-2.61983e-06
-1.8278e-06
-2.81875e-06
-1.63163e-06
-2.98045e-06
-1.39235e-06
-3.10238e-06
-1.11527e-06
-3.18258e-06
-8.06624e-07
-3.21931e-06
-4.73271e-07
-3.2107e-06
-1.22491e-07
-3.15443e-06
2.38187e-07
-3.04738e-06
6.01053e-07
-2.88551e-06
9.58221e-07
-2.66378e-06
1.30157e-06
-2.3762e-06
1.62268e-06
-2.01614e-06
1.91268e-06
-1.57686e-06
2.16225e-06
-1.05227e-06
2.36162e-06
-4.38087e-07
2.5007e-06
2.66824e-07
2.56961e-06
1.05902e-06
2.55909e-06
1.9292e-06
2.46134e-06
2.86072e-06
2.27093e-06
3.82964e-06
1.98569e-06
4.80572e-06
1.60745e-06
5.75559e-06
1.14241e-06
6.64623e-06
6.01282e-07
7.44794e-06
8.13087e-06
-5.29618e-09
6.93702e-08
-1.81812e-08
1.8286e-07
-3.95271e-08
3.20736e-07
-6.95827e-08
4.75804e-07
-1.08242e-07
6.34555e-07
-1.55942e-07
7.79682e-07
-2.14131e-07
8.95705e-07
-2.84865e-07
9.73007e-07
-3.70105e-07
1.00759e-06
-4.71259e-07
9.99286e-07
-5.89064e-07
9.49862e-07
-7.23637e-07
8.61345e-07
-8.74459e-07
7.35183e-07
-1.04021e-06
5.72226e-07
-1.21848e-06
3.73246e-07
-1.4055e-06
1.39608e-07
-1.59605e-06
-1.26165e-07
-1.78345e-06
-4.20066e-07
-1.95989e-06
-7.36537e-07
-2.11685e-06
-1.06863e-06
-2.24566e-06
-1.40835e-06
-2.33811e-06
-1.74708e-06
-2.38711e-06
-2.07612e-06
-2.38711e-06
-2.38711e-06
-2.33451e-06
-2.67243e-06
-2.22782e-06
-2.92544e-06
-2.06769e-06
-3.14059e-06
-1.85672e-06
-3.31335e-06
-1.59928e-06
-3.44001e-06
-1.30116e-06
-3.51743e-06
-9.69255e-07
-3.54261e-06
-6.11276e-07
-3.5124e-06
-2.35508e-07
-3.42314e-06
1.4936e-07
-3.27038e-06
5.34325e-07
-3.04875e-06
9.10095e-07
-2.75197e-06
1.26706e-06
-2.37311e-06
1.59524e-06
-1.90504e-06
1.88424e-06
-1.34127e-06
2.12327e-06