/*--------------------------------*- C++ -*----------------------------------*\
| =========                 |                                                 |
| \\      /  F ield         | OpenFOAM: The Open Source CFD Toolbox           |
|  \\    /   O peration     | Version:  v1912                                 |
|   \\  /    A nd           | Website:  www.openfoam.com                      |
|    \\/     M anipulation  |                                                 |
\*---------------------------------------------------------------------------*/
FoamFile
{
    version     2.0;
    format      ascii;
    class       volSymmTensorField;
    location    "2000";
    object      turbulenceProperties:R;
}
// * * * * * * * * * * * * * * * * * * * * * * * * * * * * * * * * * * * * * //

dimensions      [0 2 -2 0 0 0 0];


internalField   nonuniform List<symmTensor> 
2500
(
(0.000833446 -3.45546e-05 -3.45546e-05 0.000833447 1.53274e-09 0.000833447)
(0.000890513 -2.6047e-05 -8.27487e-05 0.000890516 -4.43716e-10 0.000890511)
(0.00102327 -2.41283e-05 -0.000131091 0.00102328 3.34305e-09 0.00102326)
(0.00123 -2.38603e-05 -0.000186778 0.00123002 1.55695e-08 0.00122998)
(0.00150099 -2.43507e-05 -0.000252628 0.00150103 4.3385e-08 0.00150096)
(0.00182386 -2.50467e-05 -0.000328988 0.00182392 9.23505e-08 0.00182383)
(0.00218632 -2.56249e-05 -0.00041497 0.00218638 1.58498e-07 0.0021863)
(0.00257738 -2.59205e-05 -0.000509171 0.00257743 2.23766e-07 0.00257741)
(0.00298788 -2.58746e-05 -0.000610034 0.00298789 2.58628e-07 0.00298797)
(0.00341033 -2.54947e-05 -0.000716023 0.00341029 2.30499e-07 0.00341053)
(0.00383878 -2.48232e-05 -0.000825724 0.00383868 1.1236e-07 0.0038391)
(0.00426859 -2.39209e-05 -0.00093789 0.00426844 -1.11779e-07 0.00426905)
(0.00469624 -2.28532e-05 -0.00105147 0.00469603 -4.45334e-07 0.00469683)
(0.00511914 -2.16821e-05 -0.0011656 0.0051189 -8.80803e-07 0.00511987)
(0.00553556 -2.046e-05 -0.00127964 0.0055353 -1.40317e-06 0.00553642)
(0.00594442 -1.92265e-05 -0.00139309 0.00594415 -1.99366e-06 0.00594541)
(0.00634513 -1.80145e-05 -0.00150564 0.00634486 -2.63291e-06 0.00634625)
(0.00673747 -1.68433e-05 -0.00161703 0.00673721 -3.30319e-06 0.00673871)
(0.00712156 -1.5725e-05 -0.00172717 0.00712131 -3.98977e-06 0.00712293)
(0.00749751 -1.46659e-05 -0.00183595 0.00749727 -4.68116e-06 0.00749902)
(0.00786566 -1.36677e-05 -0.00194336 0.00786544 -5.36928e-06 0.00786731)
(0.00822627 -1.27309e-05 -0.00204938 0.00822607 -6.04877e-06 0.00822807)
(0.00857961 -1.18519e-05 -0.00215398 0.00857943 -6.71649e-06 0.00858156)
(0.00892602 -1.10275e-05 -0.00225717 0.00892585 -7.3709e-06 0.00892813)
(0.00926556 -1.02547e-05 -0.00235894 0.0092654 -8.01147e-06 0.00926784)
(0.00959836 -9.52902e-06 -0.00245926 0.00959822 -8.63805e-06 0.00960082)
(0.00992456 -8.84674e-06 -0.00255807 0.00992443 -9.25041e-06 0.0099272)
(0.0102441 -8.2048e-06 -0.00265534 0.010244 -9.84801e-06 0.0102469)
(0.010557 -7.6005e-06 -0.00275098 0.0105569 -1.04293e-05 0.01056)
(0.010863 -7.0311e-06 -0.00284492 0.0108629 -1.09918e-05 0.0108662)
(0.011162 -6.49399e-06 -0.00293708 0.0111619 -1.15318e-05 0.0111654)
(0.0114538 -5.98609e-06 -0.00302733 0.0114537 -1.20438e-05 0.0114573)
(0.011738 -5.50618e-06 -0.00311553 0.0117379 -1.25205e-05 0.0117417)
(0.0120143 -5.05232e-06 -0.00320155 0.0120142 -1.29525e-05 0.0120183)
(0.0122823 -4.62256e-06 -0.00328521 0.0122823 -1.33286e-05 0.0122864)
(0.0125416 -4.21534e-06 -0.00336637 0.0125415 -1.36351e-05 0.0125459)
(0.0127914 -3.82906e-06 -0.00344482 0.0127914 -1.38559e-05 0.012796)
(0.0130314 -3.46337e-06 -0.00352031 0.0130314 -1.3973e-05 0.0130361)
(0.0132609 -3.11607e-06 -0.00359264 0.0132609 -1.39674e-05 0.0132658)
(0.013479 -2.78605e-06 -0.00366154 0.0134791 -1.38178e-05 0.0134841)
(0.0136852 -2.47298e-06 -0.00372673 0.0136852 -1.35024e-05 0.0136904)
(0.0138783 -2.17542e-06 -0.00378795 0.0138784 -1.30004e-05 0.0138837)
(0.0140576 -1.89206e-06 -0.00384488 0.0140577 -1.22931e-05 0.0140631)
(0.0142219 -1.6217e-06 -0.00389709 0.014222 -1.1365e-05 0.0142275)
(0.0143699 -1.36223e-06 -0.00394421 0.01437 -1.02079e-05 0.0143756)
(0.0145002 -1.11164e-06 -0.0039857 0.0145003 -8.81845e-06 0.014506)
(0.0146109 -8.66795e-07 -0.00402098 0.014611 -7.20428e-06 0.0146168)
(0.0146995 -6.23896e-07 -0.00404927 0.0146996 -5.37559e-06 0.0147055)
(0.0147629 -3.78739e-07 -0.00406954 0.0147631 -3.3521e-06 0.014769)
(0.0147971 -1.27448e-07 -0.00408045 0.0147973 -1.14806e-06 0.0148032)
(0.000890513 -8.27487e-05 -2.6047e-05 0.000890511 -4.43719e-10 0.000890516)
(0.000805088 -6.72361e-05 -6.72361e-05 0.000805086 -9.87874e-09 0.000805086)
(0.000821788 -6.11677e-05 -0.000106123 0.0008218 -1.57729e-08 0.000821772)
(0.000913089 -5.76319e-05 -0.00014697 0.00091312 -1.88636e-08 0.000913051)
(0.00106068 -5.60817e-05 -0.000193594 0.00106073 -1.68768e-08 0.00106061)
(0.00125006 -5.55862e-05 -0.00024752 0.00125014 -8.50358e-09 0.00124998)
(0.00146943 -5.53581e-05 -0.000308466 0.0014695 1.24086e-09 0.00146935)
(0.00170931 -5.49128e-05 -0.000375336 0.00170935 -1.00857e-09 0.00170926)
(0.00196229 -5.40185e-05 -0.000446801 0.00196225 -3.3528e-08 0.0019623)
(0.00222263 -5.26159e-05 -0.000521576 0.0022225 -1.13257e-07 0.00222274)
(0.00248604 -5.07502e-05 -0.000598523 0.0024858 -2.51536e-07 0.00248624)
(0.00274928 -4.85186e-05 -0.000676692 0.00274894 -4.52725e-07 0.00274958)
(0.00301007 -4.60349e-05 -0.000755322 0.00300964 -7.1478e-07 0.00301044)
(0.00326683 -4.34096e-05 -0.000833836 0.00326634 -1.0309e-06 0.00326725)
(0.00351858 -4.07362e-05 -0.000911815 0.00351806 -1.39146e-06 0.00351901)
(0.0037648 -3.80895e-05 -0.000988976 0.00376426 -1.78573e-06 0.00376522)
(0.00400529 -3.55237e-05 -0.00106515 0.00400476 -2.20331e-06 0.00400567)
(0.00424009 -3.3071e-05 -0.00114023 0.00423958 -2.6349e-06 0.00424042)
(0.00446939 -3.07517e-05 -0.00121421 0.0044689 -3.07288e-06 0.00446965)
(0.00469343 -2.85745e-05 -0.00128706 0.00469298 -3.51133e-06 0.00469362)
(0.00491252 -2.6538e-05 -0.00135882 0.0049121 -3.94608e-06 0.00491262)
(0.00512693 -2.46379e-05 -0.00142952 0.00512655 -4.37437e-06 0.00512695)
(0.00533695 -2.28671e-05 -0.00149918 0.0053366 -4.79459e-06 0.00533687)
(0.00554278 -2.12163e-05 -0.00156784 0.00554247 -5.2059e-06 0.00554261)
(0.00574462 -1.96762e-05 -0.00163547 0.00574433 -5.60796e-06 0.00574435)
(0.0059426 -1.82375e-05 -0.00170215 0.00594233 -6.00081e-06 0.00594223)
(0.0061368 -1.68925e-05 -0.00176783 0.00613656 -6.38424e-06 0.00613632)
(0.00632728 -1.56331e-05 -0.0018325 0.00632706 -6.75784e-06 0.0063267)
(0.00651404 -1.44524e-05 -0.00189613 0.00651384 -7.12075e-06 0.00651334)
(0.006697 -1.33439e-05 -0.00195868 0.00669682 -7.47134e-06 0.00669618)
(0.00687616 -1.23031e-05 -0.00202008 0.00687601 -7.8073e-06 0.00687523)
(0.00705133 -1.13227e-05 -0.00208032 0.0070512 -8.12516e-06 0.00705027)
(0.00722237 -1.03975e-05 -0.00213928 0.00722225 -8.42048e-06 0.00722118)
(0.00738908 -9.52573e-06 -0.00219687 0.00738898 -8.68726e-06 0.00738774)
(0.00755125 -8.70398e-06 -0.00225301 0.00755118 -8.91835e-06 0.00754978)
(0.00770842 -7.93029e-06 -0.00230756 0.00770837 -9.10482e-06 0.00770681)
(0.00786046 -7.19678e-06 -0.0023604 0.00786044 -9.23652e-06 0.0078587)
(0.0080069 -6.50029e-06 -0.00241138 0.00800691 -9.30179e-06 0.00800499)
(0.00814727 -5.84219e-06 -0.00246032 0.00814731 -9.28787e-06 0.00814522)
(0.00828118 -5.21956e-06 -0.00250706 0.00828125 -9.1809e-06 0.00827897)
(0.00840802 -4.63005e-06 -0.00255141 0.00840812 -8.96662e-06 0.00840566)
(0.00852719 -4.07134e-06 -0.00259311 0.00852732 -8.6307e-06 0.00852469)
(0.00863809 -3.53875e-06 -0.00263196 0.00863825 -8.16063e-06 0.00863546)
(0.00873999 -3.03087e-06 -0.00266768 0.00874018 -7.54577e-06 0.00873723)
(0.00883202 -2.54566e-06 -0.00269998 0.00883224 -6.77976e-06 0.00882914)
(0.00891319 -2.07612e-06 -0.00272847 0.00891342 -5.85982e-06 0.00891019)
(0.00898221 -1.61809e-06 -0.00275272 0.00898246 -4.78972e-06 0.00897913)
(0.00903756 -1.16524e-06 -0.00277217 0.00903783 -3.57587e-06 0.00903441)
(0.00907724 -7.07668e-07 -0.00278613 0.00907751 -2.23074e-06 0.00907404)
(0.00909865 -2.3811e-07 -0.00279365 0.00909893 -7.64005e-07 0.00909542)
(0.00102327 -0.000131091 -2.41283e-05 0.00102326 3.34304e-09 0.00102328)
(0.000821788 -0.000106123 -6.11677e-05 0.000821772 -1.57729e-08 0.0008218)
(0.000755813 -9.79269e-05 -9.79269e-05 0.000755814 -2.91207e-08 0.000755814)
(0.000781059 -9.29897e-05 -0.000137212 0.000781079 -3.93981e-08 0.000781042)
(0.000870099 -9.0395e-05 -0.000181627 0.000870139 -4.48506e-08 0.000870062)
(0.00100452 -8.93689e-05 -0.000233231 0.00100457 -4.62308e-08 0.00100447)
(0.00117108 -8.89394e-05 -0.000292401 0.00117111 -5.28156e-08 0.00117107)
(0.00135988 -8.83302e-05 -0.000358268 0.00135985 -8.20688e-08 0.00135994)
(0.00156334 -8.70964e-05 -0.000429439 0.0015632 -1.53001e-07 0.00156352)
(0.00177572 -8.50774e-05 -0.000504459 0.00177544 -2.78464e-07 0.00177604)
(0.00199264 -8.22978e-05 -0.000582004 0.0019922 -4.62552e-07 0.00199312)
(0.00221087 -7.88903e-05 -0.00066097 0.00221029 -7.02158e-07 0.00221148)
(0.00242811 -7.50303e-05 -0.000740504 0.00242741 -9.89863e-07 0.00242881)
(0.00264277 -7.08959e-05 -0.00081995 0.00264199 -1.31653e-06 0.00264353)
(0.00285392 -6.66451e-05 -0.000898866 0.00285308 -1.67301e-06 0.00285468)
(0.00306101 -6.24057e-05 -0.000976973 0.00306017 -2.05101e-06 0.00306174)
(0.00326388 -5.82673e-05 -0.0010541 0.00326304 -2.44339e-06 0.00326454)
(0.00346255 -5.42977e-05 -0.00113019 0.00346174 -2.84428e-06 0.00346311)
(0.00365719 -5.05312e-05 -0.00120525 0.00365643 -3.24895e-06 0.00365763)
(0.00384807 -4.69807e-05 -0.00127927 0.00384736 -3.65375e-06 0.00384838)
(0.00403543 -4.36567e-05 -0.00135232 0.00403478 -4.05598e-06 0.0040356)
(0.00421957 -4.05497e-05 -0.00142446 0.00421897 -4.45385e-06 0.00421959)
(0.00440071 -3.76512e-05 -0.00149573 0.00440016 -4.84611e-06 0.00440058)
(0.00457908 -3.49431e-05 -0.00156617 0.00457857 -5.23208e-06 0.00457879)
(0.00475483 -3.24145e-05 -0.00163581 0.00475437 -5.61136e-06 0.00475438)
(0.00492809 -3.00587e-05 -0.00170467 0.00492767 -5.98363e-06 0.00492749)
(0.00509893 -2.78503e-05 -0.00177278 0.00509855 -6.34867e-06 0.00509817)
(0.00526742 -2.57788e-05 -0.00184008 0.00526707 -6.70576e-06 0.00526649)
(0.00543352 -2.38393e-05 -0.00190662 0.0054332 -7.05409e-06 0.00543242)
(0.0055972 -2.20157e-05 -0.0019723 0.00559691 -7.39188e-06 0.00559593)
(0.00575836 -2.03061e-05 -0.0020371 0.00575811 -7.71697e-06 0.00575693)
(0.00591688 -1.86969e-05 -0.0021009 0.00591667 -8.0258e-06 0.00591527)
(0.00607259 -1.71754e-05 -0.0021637 0.0060724 -8.31419e-06 0.00607079)
(0.00622525 -1.57413e-05 -0.00222534 0.0062251 -8.57633e-06 0.00622327)
(0.0063746 -1.43909e-05 -0.00228573 0.00637449 -8.80519e-06 0.00637243)
(0.00652032 -1.3114e-05 -0.0023447 0.00652024 -8.99206e-06 0.00651796)
(0.00666202 -1.19032e-05 -0.00240207 0.00666199 -9.12674e-06 0.00665947)
(0.00679931 -1.07573e-05 -0.00245771 0.00679933 -9.19772e-06 0.00679657)
(0.00693169 -9.67397e-06 -0.00251142 0.00693176 -9.19208e-06 0.00692876)
(0.0070586 -8.64789e-06 -0.00256294 0.00705872 -9.0957e-06 0.00705548)
(0.00717952 -7.67224e-06 -0.00261207 0.00717968 -8.89397e-06 0.0071762)
(0.00729369 -6.74641e-06 -0.00265845 0.00729391 -8.57203e-06 0.0072902)
(0.00740047 -5.86677e-06 -0.00270182 0.00740074 -8.11668e-06 0.0073968)
(0.00749891 -5.02859e-06 -0.00274186 0.00749922 -7.51632e-06 0.00749507)
(0.00758821 -4.22394e-06 -0.00277817 0.00758857 -6.76352e-06 0.00758423)
(0.00766717 -3.44771e-06 -0.00281029 0.00766757 -5.85463e-06 0.00766306)
(0.00773447 -2.68891e-06 -0.00283774 0.00773489 -4.79224e-06 0.00773024)
(0.00778862 -1.9352e-06 -0.00285976 0.00778907 -3.58214e-06 0.00778431)
(0.00782744 -1.17484e-06 -0.00287557 0.0078279 -2.23634e-06 0.00782307)
(0.00784844 -3.95206e-07 -0.00288411 0.00784891 -7.65927e-07 0.00784405)
(0.00123 -0.000186778 -2.38603e-05 0.00122998 1.55695e-08 0.00123002)
(0.000913089 -0.00014697 -5.76319e-05 0.000913051 -1.88636e-08 0.00091312)
(0.000781059 -0.000137212 -9.29897e-05 0.000781042 -3.93981e-08 0.000781079)
(0.00076986 -0.000135976 -0.000135976 0.00076986 -5.36171e-08 0.00076986)
(0.000840381 -0.000138352 -0.000188434 0.000840395 -5.79027e-08 0.000840365)
(0.000967742 -0.000141871 -0.000251001 0.000967748 -5.10484e-08 0.00096773)
(0.00113518 -0.000145127 -0.000323484 0.00113513 -5.0462e-08 0.00113521)
(0.00133068 -0.000147175 -0.000404681 0.0013305 -8.96767e-08 0.00133082)
(0.00154522 -0.000147497 -0.000492787 0.00154485 -1.99276e-07 0.00154552)
(0.00177188 -0.000145954 -0.000585865 0.00177128 -3.9225e-07 0.00177236)
(0.00200541 -0.000142673 -0.000682136 0.00200457 -6.64061e-07 0.00200606)
(0.00224186 -0.000137958 -0.000780138 0.00224079 -9.99873e-07 0.00224263)
(0.00247838 -0.000132155 -0.000878713 0.00247714 -1.38187e-06 0.00247922)
(0.00271304 -0.000125621 -0.000977062 0.00271167 -1.79414e-06 0.00271388)
(0.00294464 -0.000118684 -0.00107462 0.0029432 -2.22478e-06 0.0029454)
(0.00317247 -0.000111597 -0.00117106 0.00317102 -2.66591e-06 0.00317311)
(0.0033963 -0.000104564 -0.0012662 0.00339487 -3.11257e-06 0.00339675)
(0.0036161 -9.77312e-05 -0.00135998 0.00361472 -3.56184e-06 0.00361634)
(0.00383203 -9.11651e-05 -0.00145243 0.00383072 -4.0118e-06 0.00383203)
(0.00404435 -8.49225e-05 -0.00154362 0.00404313 -4.46097e-06 0.0040441)
(0.00425335 -7.90437e-05 -0.00163359 0.00425222 -4.90816e-06 0.00425284)
(0.00445932 -7.35102e-05 -0.00172248 0.00445828 -5.35242e-06 0.00445855)
(0.0046625 -6.83182e-05 -0.00181032 0.00466154 -5.79283e-06 0.00466148)
(0.00486313 -6.34603e-05 -0.00189719 0.00486225 -6.22864e-06 0.00486186)
(0.00506137 -5.89085e-05 -0.00198319 0.00506057 -6.65927e-06 0.00505987)
(0.00525738 -5.46432e-05 -0.0020683 0.00525665 -7.08401e-06 0.00525565)
(0.00545121 -5.06459e-05 -0.00215254 0.00545054 -7.50211e-06 0.00544927)
(0.00564291 -4.68971e-05 -0.00223594 0.0056423 -7.91258e-06 0.00564075)
(0.00583244 -4.33738e-05 -0.00231848 0.00583189 -8.31394e-06 0.00583009)
(0.00601976 -4.00588e-05 -0.0024001 0.00601926 -8.70439e-06 0.00601721)
(0.00620473 -3.69396e-05 -0.00248074 0.00620429 -9.08065e-06 0.00620199)
(0.0063872 -3.40041e-05 -0.00256029 0.00638681 -9.43919e-06 0.00638427)
(0.00656692 -3.12373e-05 -0.00263868 0.0065666 -9.77472e-06 0.00656382)
(0.00674365 -2.86254e-05 -0.00271582 0.00674339 -1.00808e-05 0.00674036)
(0.00691702 -2.61588e-05 -0.00279147 0.00691683 -1.0349e-05 0.00691356)
(0.00708658 -2.38261e-05 -0.0028655 0.00708646 -1.05694e-05 0.00708295)
(0.00725201 -2.16192e-05 -0.00293768 0.00725197 -1.07303e-05 0.00724821)
(0.00741258 -1.95338e-05 -0.00300781 0.00741262 -1.08176e-05 0.0074086)
(0.00756787 -1.75582e-05 -0.00307558 0.007568 -1.08166e-05 0.00756373)
(0.00771716 -1.56861e-05 -0.00314072 0.00771738 -1.07098e-05 0.00771286)
(0.00785958 -1.39131e-05 -0.00320287 0.0078599 -1.04803e-05 0.00785512)
(0.0079944 -1.22275e-05 -0.00326171 0.00799481 -1.01099e-05 0.00798978)
(0.00812062 -1.06287e-05 -0.00331684 0.00812112 -9.5823e-06 0.00811586)
(0.0082373 -9.10773e-06 -0.00336774 0.00823789 -8.8831e-06 0.0082324)
(0.00834325 -7.64773e-06 -0.00341395 0.00834392 -8.00245e-06 0.00833823)
(0.00843706 -6.24055e-06 -0.00345489 0.0084378 -6.93505e-06 0.00843194)
(0.00851714 -4.86554e-06 -0.00348981 0.00851793 -5.68279e-06 0.00851193)
(0.00858155 -3.50128e-06 -0.00351793 0.00858237 -4.252e-06 0.00857628)
(0.00862782 -2.12589e-06 -0.00353812 0.00862867 -2.65587e-06 0.00862251)
(0.00865282 -7.15024e-07 -0.00354904 0.00865369 -9.09404e-07 0.0086475)
(0.00150099 -0.000252628 -2.43507e-05 0.00150096 4.3385e-08 0.00150103)
(0.00106068 -0.000193594 -5.60817e-05 0.00106061 -1.68768e-08 0.00106073)
(0.000870099 -0.000181627 -9.0395e-05 0.000870062 -4.48506e-08 0.000870139)
(0.000840381 -0.000188434 -0.000138352 0.000840365 -5.79027e-08 0.000840395)
(0.000917697 -0.000204205 -0.000204205 0.000917691 -4.83025e-08 0.000917691)
(0.00106783 -0.000221409 -0.000287155 0.00106779 -1.58015e-09 0.00106785)
(0.00126814 -0.000236103 -0.000384646 0.00126796 6.26598e-08 0.00126826)
(0.00150285 -0.000246579 -0.000493695 0.0015024 7.97112e-08 0.00150317)
(0.00176042 -0.000252306 -0.000611229 0.0017596 -1.42751e-08 0.00176102)
(0.00203221 -0.000253426 -0.000734375 0.00203099 -2.42497e-07 0.00203313)
(0.00231176 -0.000250494 -0.000860678 0.00231013 -5.90604e-07 0.00231297)
(0.00259431 -0.00024426 -0.000988215 0.00259234 -1.02614e-06 0.00259576)
(0.00287647 -0.000235531 -0.00111556 0.00287423 -1.51453e-06 0.00287808)
(0.003156 -0.000225053 -0.00124175 0.00315358 -2.02804e-06 0.0031577)
(0.00343151 -0.000213484 -0.00136616 0.00342899 -2.54908e-06 0.0034332)
(0.00370224 -0.000201387 -0.00148847 0.00369971 -3.06886e-06 0.00370386)
(0.00396792 -0.000189138 -0.00160857 0.00396543 -3.58476e-06 0.00396941)
(0.00422858 -0.000177047 -0.00172642 0.00422619 -4.09744e-06 0.00422991)
(0.00448445 -0.000165348 -0.00184213 0.00448218 -4.60857e-06 0.00448559)
(0.00473583 -0.000154123 -0.00195586 0.00473371 -5.11964e-06 0.0047368)
(0.0049831 -0.00014346 -0.00206772 0.00498113 -5.63145e-06 0.00498388)
(0.00522662 -0.000133397 -0.00217788 0.00522479 -6.14397e-06 0.00522723)
(0.00546668 -0.000123913 -0.0022865 0.00546501 -6.65654e-06 0.00546715)
(0.00570358 -0.000115006 -0.00239365 0.00570205 -7.16803e-06 0.00570393)
(0.00593755 -0.00010665 -0.00249944 0.00593614 -7.67709e-06 0.0059378)
(0.00616873 -9.8813e-05 -0.00260393 0.00616744 -8.18214e-06 0.00616891)
(0.00639723 -9.14594e-05 -0.00270721 0.00639606 -8.68151e-06 0.00639737)
(0.00662312 -8.45673e-05 -0.00280925 0.00662205 -9.17335e-06 0.00662323)
(0.00684635 -7.80941e-05 -0.00291002 0.00684538 -9.65533e-06 0.00684646)
(0.00706691 -7.20049e-05 -0.00300958 0.00706605 -1.01244e-05 0.00706704)
(0.00728467 -6.62848e-05 -0.0031078 0.0072839 -1.0577e-05 0.00728482)
(0.00749936 -6.09068e-05 -0.00320462 0.00749869 -1.10083e-05 0.00749955)
(0.00771078 -5.58508e-05 -0.0032999 0.00771022 -1.14124e-05 0.00771101)
(0.00791866 -5.10823e-05 -0.00339352 0.00791821 -1.17814e-05 0.00791893)
(0.00812253 -4.65889e-05 -0.00348529 0.00812221 -1.21058e-05 0.00812286)
(0.00832194 -4.23555e-05 -0.00357503 0.00832174 -1.23742e-05 0.00832231)
(0.00851635 -3.8361e-05 -0.00366243 0.00851629 -1.25727e-05 0.00851676)
(0.00870509 -3.45891e-05 -0.00374733 0.00870517 -1.26851e-05 0.00870554)
(0.00888763 -3.10303e-05 -0.00382928 0.00888787 -1.26937e-05 0.00888811)
(0.00906297 -2.76704e-05 -0.00390803 0.00906337 -1.25786e-05 0.00906347)
(0.00923037 -2.44949e-05 -0.00398317 0.00923094 -1.2319e-05 0.00923089)
(0.00938871 -2.1499e-05 -0.0040542 0.00938945 -1.18939e-05 0.00938924)
(0.00953705 -1.86559e-05 -0.00412075 0.00953795 -1.12834e-05 0.00953759)
(0.00967407 -1.59577e-05 -0.00418217 0.00967512 -1.04702e-05 0.00967461)
(0.00979842 -1.3385e-05 -0.0042379 0.00979961 -9.44126e-06 0.00979897)
(0.00990857 -1.09084e-05 -0.00428727 0.00990989 -8.18998e-06 0.00990914)
(0.0100026 -8.49815e-06 -0.0043294 0.010004 -6.71732e-06 0.0100032)
(0.0100782 -6.11304e-06 -0.00436327 0.0100797 -5.03024e-06 0.0100788)
(0.0101325 -3.7079e-06 -0.00438757 0.010134 -3.14333e-06 0.0101331)
(0.0101618 -1.24693e-06 -0.00440075 0.0101634 -1.0761e-06 0.0101624)
(0.00182386 -0.000328988 -2.50467e-05 0.00182383 9.23505e-08 0.00182392)
(0.00125006 -0.00024752 -5.55862e-05 0.00124998 -8.50358e-09 0.00125014)
(0.00100452 -0.000233231 -8.93689e-05 0.00100447 -4.62308e-08 0.00100457)
(0.000967742 -0.000251001 -0.000141871 0.00096773 -5.10484e-08 0.000967748)
(0.00106783 -0.000287155 -0.000221409 0.00106785 -1.58015e-09 0.00106779)
(0.00125833 -0.000327414 -0.000327414 0.00125831 1.51278e-07 0.00125831)
(0.00150842 -0.000362795 -0.000454564 0.00150818 4.0646e-07 0.00150862)
(0.00179719 -0.000389408 -0.000596855 0.00179647 6.59886e-07 0.00179784)
(0.00211002 -0.000406292 -0.000749003 0.00210863 7.82192e-07 0.00211129)
(0.0024365 -0.000413932 -0.000906733 0.0024344 7.12177e-07 0.00243848)
(0.00276922 -0.000413534 -0.00106669 0.00276645 4.58856e-07 0.00277189)
(0.00310296 -0.000406611 -0.0012265 0.00309963 6.59049e-08 0.00310625)
(0.00343418 -0.000394662 -0.00138447 0.00343044 -4.15956e-07 0.003438)
(0.00376063 -0.000379062 -0.00153959 0.00375661 -9.4472e-07 0.00376486)
(0.004081 -0.000361046 -0.00169128 0.00407685 -1.4931e-06 0.00408555)
(0.0043947 -0.000341648 -0.00183933 0.00439053 -2.04764e-06 0.00439946)
(0.00470158 -0.000321595 -0.00198372 0.00469748 -2.60502e-06 0.00470648)
(0.00500183 -0.00030149 -0.00212462 0.00499788 -3.16698e-06 0.00500681)
(0.00529582 -0.000281769 -0.00226219 0.00529206 -3.73707e-06 0.00530084)
(0.00558399 -0.000262691 -0.00239669 0.00558046 -4.31836e-06 0.00558904)
(0.00586684 -0.000244434 -0.00252842 0.00586355 -4.91219e-06 0.0058719)
(0.00614481 -0.000227096 -0.00265758 0.00614176 -5.51827e-06 0.00614989)
(0.00641833 -0.000210709 -0.0027844 0.00641552 -6.13477e-06 0.00642343)
(0.00668774 -0.000195263 -0.00290911 0.00668516 -6.75894e-06 0.00669289)
(0.00695339 -0.000180744 -0.0030318 0.00695102 -7.38739e-06 0.00695859)
(0.00721536 -0.000167137 -0.00315265 0.0072132 -8.01613e-06 0.00722065)
(0.007474 -0.000154371 -0.00327169 0.00747202 -8.64189e-06 0.00747938)
(0.00772923 -0.000142385 -0.00338904 0.00772744 -9.26068e-06 0.00773473)
(0.0079812 -0.000131162 -0.00350463 0.00797958 -9.86824e-06 0.00798682)
(0.00822976 -0.000120646 -0.00361855 0.00822832 -1.046e-05 0.00823552)
(0.00847486 -0.000110773 -0.00373071 0.00847359 -1.10317e-05 0.00848075)
(0.0087163 -0.000101508 -0.00384109 0.00871519 -1.15771e-05 0.00872231)
(0.0089538 -9.28209e-05 -0.00394949 0.00895287 -1.2089e-05 0.00895993)
(0.00918703 -8.46711e-05 -0.00405581 0.00918629 -1.25586e-05 0.00919328)
(0.0094156 -7.70115e-05 -0.00415992 0.00941506 -1.2976e-05 0.00942195)
(0.00963903 -6.98123e-05 -0.00426153 0.00963871 -1.33277e-05 0.00964546)
(0.00985667 -6.30574e-05 -0.00436045 0.00985657 -1.35991e-05 0.00986316)
(0.0100678 -5.67081e-05 -0.0044563 0.010068 -1.37724e-05 0.0100744)
(0.0102719 -5.0734e-05 -0.00454887 0.0102723 -1.38271e-05 0.0102784)
(0.0104678 -4.51293e-05 -0.00463763 0.0104685 -1.37427e-05 0.0104743)
(0.0106547 -3.98532e-05 -0.00472233 0.0106556 -1.3495e-05 0.0106612)
(0.0108314 -3.48871e-05 -0.00480229 0.0108327 -1.30611e-05 0.0108379)
(0.0109969 -3.02129e-05 -0.00487711 0.0109984 -1.24178e-05 0.0110033)
(0.0111496 -2.57916e-05 -0.00494621 0.0111514 -1.15463e-05 0.011156)
(0.0112882 -2.15928e-05 -0.00500885 0.0112902 -1.04312e-05 0.0112945)
(0.011411 -1.75722e-05 -0.00506427 0.0114132 -9.06396e-06 0.0114172)
(0.0115157 -1.36683e-05 -0.00511154 0.011518 -7.44502e-06 0.0115219)
(0.0115998 -9.81955e-06 -0.00514952 0.0116022 -5.58197e-06 0.011606)
(0.0116602 -5.95498e-06 -0.00517677 0.0116627 -3.49131e-06 0.0116664)
(0.0116929 -2.00286e-06 -0.00519153 0.0116954 -1.19557e-06 0.0116991)
(0.00218632 -0.00041497 -2.56249e-05 0.0021863 1.58498e-07 0.00218638)
(0.00146943 -0.000308466 -5.53581e-05 0.00146935 1.24086e-09 0.0014695)
(0.00117108 -0.000292401 -8.89394e-05 0.00117107 -5.28156e-08 0.00117111)
(0.00113518 -0.000323484 -0.000145127 0.00113521 -5.0462e-08 0.00113513)
(0.00126814 -0.000384646 -0.000236103 0.00126826 6.26598e-08 0.00126796)
(0.00150842 -0.000454564 -0.000362795 0.00150862 4.0646e-07 0.00150818)
(0.00181512 -0.000517904 -0.000517904 0.00181513 1.02008e-06 0.00181513)
(0.00216138 -0.000567492 -0.000692178 0.00216074 1.7465e-06 0.00216211)
(0.00252957 -0.000601457 -0.000877688 0.00252789 2.36059e-06 0.0025314)
(0.00290797 -0.000620442 -0.00106838 0.00290511 2.73823e-06 0.00291108)
(0.00328881 -0.000626279 -0.00126 0.00328484 2.86329e-06 0.0032932)
(0.00366705 -0.00062123 -0.00144969 0.00366214 2.77211e-06 0.00367257)
(0.00403946 -0.000607565 -0.00163556 0.00403385 2.5176e-06 0.00404593)
(0.0044042 -0.000587411 -0.00181664 0.00439812 2.14967e-06 0.00441142)
(0.00476033 -0.000562655 -0.00199244 0.004754 1.70536e-06 0.00476813)
(0.00510759 -0.000534915 -0.0021628 0.00510118 1.20674e-06 0.00511578)
(0.00544613 -0.0005054 -0.00232787 0.00543979 6.63621e-07 0.00545458)
(0.00577636 -0.000475131 -0.00248801 0.0057702 7.8836e-08 0.00578494)
(0.00609884 -0.000444908 -0.00264352 0.00609295 -5.47956e-07 0.00610747)
(0.0064142 -0.000415258 -0.00279477 0.00640863 -1.21685e-06 0.0064228)
(0.00672303 -0.000386567 -0.00294221 0.00671781 -1.92623e-06 0.00673156)
(0.00702601 -0.000359067 -0.00308613 0.00702116 -2.67247e-06 0.00703444)
(0.00732346 -0.000332911 -0.00322685 0.00731897 -3.44988e-06 0.00733176)
(0.00761606 -0.000308145 -0.00336468 0.00761192 -4.25151e-06 0.00762422)
(0.00790399 -0.000284794 -0.0034999 0.00790019 -5.0698e-06 0.00791201)
(0.00818766 -0.000262836 -0.00363261 0.00818419 -5.89682e-06 0.00819554)
(0.00846721 -0.000242217 -0.0037629 0.00846404 -6.72537e-06 0.00847495)
(0.00874283 -0.00022289 -0.00389104 0.00873995 -7.54798e-06 0.00875042)
(0.00901451 -0.000204788 -0.00401699 0.00901192 -8.35741e-06 0.00902196)
(0.00928234 -0.000187846 -0.00414078 0.00928003 -9.14767e-06 0.00928964)
(0.00954617 -0.000171991 -0.0042624 0.00954413 -9.91063e-06 0.00955331)
(0.0098058 -0.000157152 -0.00438185 0.00980404 -1.06399e-05 0.00981276)
(0.010061 -0.000143269 -0.00449907 0.0100596 -1.13269e-05 0.0100678)
(0.0103115 -0.000130294 -0.00461382 0.0103104 -1.19616e-05 0.0103181)
(0.0105569 -0.000118149 -0.004726 0.010556 -1.25334e-05 0.0105632)
(0.0107966 -0.000106789 -0.00483543 0.010796 -1.30289e-05 0.0108026)
(0.0110299 -9.61624e-05 -0.00494185 0.0110297 -1.34315e-05 0.0110357)
(0.0112563 -8.62212e-05 -0.0050449 0.0112565 -1.37243e-05 0.0112618)
(0.0114749 -7.69204e-05 -0.00514424 0.0114755 -1.38846e-05 0.01148)
(0.0116848 -6.82252e-05 -0.00523958 0.0116857 -1.38914e-05 0.0116895)
(0.0118849 -6.00842e-05 -0.00533033 0.0118863 -1.37204e-05 0.0118893)
(0.0120741 -5.24625e-05 -0.00541611 0.0120759 -1.33464e-05 0.0120781)
(0.0122512 -4.53256e-05 -0.00549626 0.0122534 -1.2745e-05 0.0122548)
(0.0124147 -3.86075e-05 -0.00557023 0.0124172 -1.18963e-05 0.0124179)
(0.012563 -3.2254e-05 -0.0056373 0.0125659 -1.07833e-05 0.0125659)
(0.0126942 -2.61961e-05 -0.00569658 0.0126974 -9.39706e-06 0.0126968)
(0.0128061 -2.03505e-05 -0.00574714 0.0128096 -7.73734e-06 0.0128085)
(0.0128961 -1.46048e-05 -0.00578779 0.0128998 -5.81223e-06 0.0128983)
(0.0129606 -8.84478e-06 -0.00581689 0.0129644 -3.64101e-06 0.0129627)
(0.0129955 -2.97491e-06 -0.00583264 0.0129994 -1.2479e-06 0.0129975)
(0.00257738 -0.000509171 -2.59205e-05 0.00257741 2.23766e-07 0.00257743)
(0.00170931 -0.000375336 -5.49128e-05 0.00170926 -1.00857e-09 0.00170935)
(0.00135988 -0.000358268 -8.83302e-05 0.00135994 -8.20688e-08 0.00135985)
(0.00133068 -0.000404681 -0.000147175 0.00133082 -8.96767e-08 0.0013305)
(0.00150285 -0.000493695 -0.000246579 0.00150317 7.97112e-08 0.0015024)
(0.00179719 -0.000596855 -0.000389408 0.00179784 6.59886e-07 0.00179647)
(0.00216138 -0.000692178 -0.000567492 0.00216211 1.7465e-06 0.00216074)
(0.00256248 -0.000768852 -0.000768852 0.0025626 3.09305e-06 0.0025626)
(0.00298035 -0.000823866 -0.00098278 0.00297912 4.34887e-06 0.00298187)
(0.0034027 -0.000858068 -0.00120152 0.00339976 5.33327e-06 0.00340602)
(0.00382218 -0.000873933 -0.0014199 0.00381749 6.02094e-06 0.00382734)
(0.00423441 -0.000874299 -0.00163465 0.00422818 6.44211e-06 0.00424124)
(0.00463699 -0.000862098 -0.00184387 0.00462953 6.63775e-06 0.00464518)
(0.00502873 -0.000840016 -0.00204648 0.00502038 6.64667e-06 0.00503795)
(0.00540931 -0.000810372 -0.00224219 0.0054004 6.50043e-06 0.00541922)
(0.00577889 -0.000775357 -0.00243088 0.00576971 6.22124e-06 0.00578921)
(0.00613799 -0.000736723 -0.00261282 0.00612877 5.82302e-06 0.00614848)
(0.00648731 -0.000695931 -0.00278838 0.00647825 5.31357e-06 0.00649778)
(0.00682762 -0.00065415 -0.00295815 0.00681886 4.69858e-06 0.00683792)
(0.00715972 -0.000612346 -0.00312249 0.00715135 3.98391e-06 0.00716973)
(0.00748435 -0.000571215 -0.00328193 0.00747645 3.17742e-06 0.007494)
(0.00780226 -0.000531221 -0.00343694 0.00779486 2.28929e-06 0.00781148)
(0.00811397 -0.000492764 -0.00358796 0.00810709 1.33183e-06 0.00812274)
(0.00842009 -0.000456061 -0.0037352 0.00841373 3.18769e-07 0.00842838)
(0.00872102 -0.000421189 -0.00387917 0.00871517 -7.35215e-07 0.00872881)
(0.00901722 -0.000388213 -0.00401997 0.00901186 -1.81632e-06 0.00902451)
(0.00930884 -0.000357199 -0.00415798 0.00930395 -2.91044e-06 0.00931562)
(0.00959612 -0.000328057 -0.0042932 0.00959168 -4.00517e-06 0.0096024)
(0.00987914 -0.000300724 -0.00442586 0.00987514 -5.08862e-06 0.00988492)
(0.010158 -0.000275153 -0.00455596 0.0101544 -6.15065e-06 0.0101632)
(0.0104325 -0.000251252 -0.00468359 0.0104294 -7.18052e-06 0.0104373)
(0.0107027 -0.000228945 -0.00480864 0.0107 -8.16747e-06 0.0107069)
(0.0109683 -0.000208116 -0.00493126 0.010966 -9.1024e-06 0.010972)
(0.0112288 -0.000188684 -0.0050512 0.011227 -9.97416e-06 0.011232)
(0.0114841 -0.000170586 -0.00516833 0.0114827 -1.077e-05 0.0114867)
(0.0117334 -0.000153717 -0.00528248 0.0117325 -1.14768e-05 0.0117354)
(0.0119762 -0.000138003 -0.00539337 0.0119758 -1.20776e-05 0.0119776)
(0.0122118 -0.000123352 -0.00550074 0.0122119 -1.25554e-05 0.0122125)
(0.0124392 -0.000109718 -0.00560419 0.0124399 -1.2888e-05 0.0124393)
(0.0126576 -9.70388e-05 -0.00570336 0.0126589 -1.30534e-05 0.012657)
(0.012866 -8.52194e-05 -0.00579783 0.0128679 -1.30274e-05 0.0128647)
(0.013063 -7.42101e-05 -0.00588713 0.0130655 -1.27841e-05 0.0130611)
(0.0132475 -6.39425e-05 -0.00597056 0.0132505 -1.23007e-05 0.0132448)
(0.0134178 -5.43419e-05 -0.00604743 0.0134214 -1.15556e-05 0.0134145)
(0.0135722 -4.53046e-05 -0.00611722 0.0135764 -1.05313e-05 0.0135684)
(0.0137089 -3.67304e-05 -0.00617889 0.0137135 -9.21917e-06 0.0137046)
(0.0138256 -2.84876e-05 -0.00623152 0.0138304 -7.61872e-06 0.0138208)
(0.0139192 -2.04125e-05 -0.00627367 0.0139244 -5.73957e-06 0.0139142)
(0.0139864 -1.23524e-05 -0.006304 0.0139918 -3.60318e-06 0.0139812)
(0.0140228 -4.15133e-06 -0.00632041 0.0140282 -1.2363e-06 0.0140174)
(0.00298788 -0.000610034 -2.58746e-05 0.00298797 2.58628e-07 0.00298789)
(0.00196229 -0.000446801 -5.40185e-05 0.0019623 -3.3528e-08 0.00196225)
(0.00156334 -0.000429439 -8.70964e-05 0.00156352 -1.53001e-07 0.0015632)
(0.00154522 -0.000492787 -0.000147497 0.00154552 -1.99276e-07 0.00154485)