/*--------------------------------*- C++ -*----------------------------------*\
| =========                 |                                                 |
| \\      /  F ield         | OpenFOAM: The Open Source CFD Toolbox           |
|  \\    /   O peration     | Version:  v1912                                 |
|   \\  /    A nd           | Website:  www.openfoam.com                      |
|    \\/     M anipulation  |                                                 |
\*---------------------------------------------------------------------------*/
FoamFile
{
    version     2.0;
    format      ascii;
    class       volScalarField;
    location    "2000";
    object      turbulenceProperties:epsilon;
}
// * * * * * * * * * * * * * * * * * * * * * * * * * * * * * * * * * * * * * //

dimensions      [0 2 -3 0 0 0 0];


internalField   nonuniform List<scalar> 
2500
(
0.0113863
0.0125755
0.0154901
0.0204138
0.0275191
0.0368602
0.048377
0.0619211
0.0772888
0.0942473
0.112556
0.13198
0.152303
0.173333
0.194909
0.216898
0.239197
0.261725
0.284422
0.307241
0.330148
0.353113
0.37611
0.399117
0.422108
0.445058
0.46794
0.490724
0.513378
0.535864
0.558143
0.580173
0.601904
0.623286
0.644261
0.664768
0.68474
0.704105
0.722786
0.740699
0.757756
0.773859
0.788904
0.802776
0.815345
0.826461
0.835941
0.843559
0.849027
0.85198
0.0125755
0.0100453
0.0100478
0.0117332
0.0147374
0.018863
0.0239646
0.0299106
0.0365727
0.0438272
0.0515578
0.059659
0.0680386
0.0766187
0.0853366
0.0941433
0.103002
0.111887
0.120779
0.129665
0.138535
0.147383
0.156204
0.16499
0.173737
0.182438
0.191085
0.19967
0.208183
0.216613
0.224947
0.23317
0.241268
0.249223
0.257015
0.264624
0.272026
0.279195
0.286105
0.292726
0.299027
0.304971
0.310523
0.315639
0.320273
0.324369
0.327862
0.330668
0.332681
0.333769
0.0154901
0.0100478
0.00801893
0.00790239
0.00897513
0.0108668
0.0133697
0.0163512
0.0197138
0.0233785
0.0272781
0.0313553
0.0355618
0.0398587
0.0442152
0.0486083
0.0530212
0.0574426
0.0618647
0.0662827
0.0706933
0.0750944
0.0794841
0.0838608
0.0882223
0.0925661
0.0968892
0.101188
0.105457
0.109692
0.113887
0.118034
0.122126
0.126154
0.130108
0.133977
0.137749
0.14141
0.144946
0.148341
0.151577
0.154637
0.157499
0.160141
0.162537
0.164657
0.166467
0.167922
0.168967
0.169532
0.0204138
0.0117332
0.00790239
0.00655235
0.00656532
0.00739479
0.00875872
0.0105
0.0125215
0.0147566
0.0171547
0.019676
0.0222887
0.0249675
0.0276934
0.030452
0.0332333
0.0360304
0.0388386
0.0416551
0.0444779
0.0473057
0.0501372
0.0529712
0.0558062
0.0586402
0.061471
0.0642957
0.067111
0.069913
0.0726972
0.0754585
0.0781911
0.0808885
0.0835434
0.0861478
0.0886926
0.0911683
0.0935645
0.0958694
0.0980706
0.100155
0.102107
0.103911
0.105548
0.106999
0.108238
0.109235
0.10995
0.110337
0.0275191
0.0147374
0.00897513
0.00656532
0.00585208
0.00606963
0.00684534
0.00798406
0.0093747
0.0109481
0.0126574
0.0144689
0.0163574
0.018304
0.0202946
0.0223192
0.0243706
0.0264439
0.028536
0.0306447
0.0327685
0.0349061
0.0370563
0.0392178
0.0413889
0.0435678
0.0457522
0.0479393
0.0501259
0.0523084
0.0544827
0.056644
0.0587873
0.0609068
0.0629961
0.0650482
0.0670556
0.0690101
0.070903
0.0727246
0.0744647
0.0761123
0.0776556
0.0790816
0.080376
0.0815223
0.0825008
0.0832876
0.0838526
0.0841579
0.0368602
0.018863
0.0108668
0.00739479
0.00606963
0.00584614
0.0062426
0.00701816
0.00804168
0.00923601
0.0105527
0.0119594
0.0134341
0.0149609
0.0165289
0.0181306
0.0197608
0.0214162
0.0230944
0.0247942
0.0265142
0.0282536
0.0300111
0.0317855
0.0335752
0.0353781
0.0371919
0.0390138
0.0408406
0.0426686
0.0444938
0.0463115
0.0481169
0.0499045
0.0516682
0.0534016
0.0550979
0.0567496
0.0583489
0.0598875
0.0613564
0.0627463
0.0640471
0.0652481
0.0663371
0.0673006
0.0681223
0.0687825
0.0692563
0.0695123
0.048377
0.0239646
0.0133697
0.00875872
0.00684534
0.0062426
0.00634007
0.00684512
0.00760414
0.00853024
0.00957138
0.0106949
0.0118797
0.0131118
0.0143821
0.0156846
0.0170155
0.0183727
0.0197547
0.0211607
0.0225902
0.0240425
0.0255168
0.027012
0.0285267
0.0300588
0.0316063
0.0331663
0.0347356
0.0363106
0.0378872
0.039461
0.041027
0.0425799
0.0441138
0.0456227
0.0470999
0.0485385
0.0499313
0.0512707
0.0525487
0.053757
0.0548869
0.0559288
0.0568726
0.0577066
0.0584172
0.0589874
0.0593963
0.0596171
0.0619211
0.0299106
0.0163512
0.0105
0.00798406
0.00701816
0.00684512
0.00711512
0.00765087
0.00835539
0.00917259
0.0100685
0.0110222
0.0120202
0.0130543
0.0141192
0.015212
0.0163309
0.0174753
0.0186447
0.0198392
0.0210584
0.022302
0.0235693
0.0248593
0.0261702
0.0275002
0.0288467
0.0302067
0.0315767
0.0329528
0.0343307
0.0357053
0.0370716
0.0384238
0.0397558
0.0410614
0.0423339
0.0435663
0.0447515
0.0458822
0.0469508
0.0479492
0.0488692
0.0497017
0.0504365
0.0510619
0.0515633
0.0519225
0.0521164
0.0772888
0.0365727
0.0197138
0.0125215
0.0093747
0.00804168
0.00760414
0.00765087
0.00797997
0.00848424
0.0091033
0.0098016
0.0105575
0.0113574
0.012193
0.0130591
0.0139529
0.0148726
0.0158177
0.016788
0.0177837
0.0188049
0.0198516
0.0209235
0.02202
0.0231401
0.0242821
0.0254439
0.026623
0.0278163
0.02902
0.03023
0.0314416
0.0326497
0.0338489
0.0350331
0.0361961
0.0373315
0.0384324
0.0394921
0.0405034
0.0414592
0.0423521
0.0431745
0.0439181
0.044574
0.0451316
0.0455783
0.045898
0.0460706
0.0942473
0.0438272
0.0233785
0.0147566
0.0109481
0.00923601
0.00853024
0.00835539
0.00848424
0.00879912
0.00923509
0.00975442
0.0103343
0.0109605
0.0116241
0.0123194
0.013043
0.0137929
0.0145682
0.0153686
0.016194
0.0170449
0.0179213
0.0188234
0.0197509
0.0207032
0.0216793
0.0226776
0.0236962
0.0247324
0.025783
0.0268443
0.0279119
0.028981
0.0300463
0.031102
0.032142
0.03316
0.0341492
0.0351029
0.0360142
0.0368762
0.0376818
0.0384238
0.0390946
0.0396859
0.0401884
0.0405905
0.0408782
0.0410334
0.112556
0.0515578
0.0272781
0.0171547
0.0126574
0.0105527
0.00957138
0.00917259
0.0091033
0.00923509
0.00949791
0.00985136
0.010271
0.0107414
0.0112526
0.0117982
0.0123739
0.0129771
0.0136062
0.0142604
0.0149395
0.0156435
0.0163725
0.0171268
0.0179063
0.0187109
0.0195401
0.0203928
0.0212676
0.0221626
0.0230753
0.0240023
0.02494
0.0258839
0.026829
0.02777
0.0287008
0.0296152
0.0305067
0.0313685
0.0321937
0.0329755
0.0337071
0.0343814
0.0349911
0.0355286
0.0359852
0.0363504
0.0366115
0.0367524
0.13198
0.059659
0.0313553
0.019676
0.0144689
0.0119594
0.0106949
0.0100685
0.0098016
0.00975442
0.00985136
0.0100488
0.01032
0.0106482
0.0110221
0.0114342
0.0118793
0.012354
0.0128557
0.0133832
0.0139357
0.0145126
0.0151139
0.0157397
0.0163901
0.017065
0.0177643
0.0184875
0.0192336
0.0200015
0.0207892
0.0215941
0.0224133
0.0232428
0.0240783
0.0249147
0.0257464
0.0265674
0.0273713
0.0281512
0.0289005
0.0296122
0.0302795
0.0308954
0.031453
0.0319447
0.0323623
0.0326964
0.0329352
0.0330641
0.152303
0.0680386
0.0355618
0.0222887
0.0163574
0.0134341
0.0118797
0.0110222
0.0105575
0.0103343
0.010271
0.01032
0.0104523
0.010649
0.0108973
0.0111886
0.0115165
0.0118767
0.012266
0.0126823
0.0131241
0.0135903
0.0140806
0.0145946
0.0151323
0.0156936
0.0162786
0.0168871
0.0175185
0.0181721
0.0188468
0.0195406
0.0202513
0.0209757
0.0217101
0.02245
0.0231903
0.0239254
0.0246491
0.0253546
0.0260352
0.0266841
0.0272944
0.027859
0.0283709
0.028823
0.0292071
0.0295145
0.0297342
0.0298528
0.173333
0.0766187
0.0398587
0.0249675
0.018304
0.0149609
0.0131118
0.0120202
0.0113574
0.0109605
0.0107414
0.0106482
0.010649
0.0107225
0.0108546
0.0110349
0.0112563
0.0115133
0.0118019
0.0121192
0.012463
0.0128319
0.0132248
0.0136409
0.0140801
0.014542
0.0150265
0.0155337
0.0160633
0.0166148
0.0171877
0.0177807
0.0183921
0.0190198
0.0196606
0.0203109
0.0209661
0.0216211
0.0222702
0.0229067
0.0235242
0.0241157
0.0246742
0.0251926
0.0256639
0.0260808
0.0264356
0.0267197
0.0269229
0.0270326
0.194909
0.0853366
0.0442152
0.0276934
0.0202946
0.0165289
0.0143821
0.0130543
0.012193
0.0116241
0.0112526
0.0110221
0.0108973
0.0108546
0.0108777
0.0109551
0.0110783
0.0112409
0.0114381
0.0116661
0.0119223
0.0122044
0.0125109
0.0128408
0.0131931
0.0135675
0.0139638
0.0143816
0.014821
0.0152816
0.0157633
0.0162652
0.0167864
0.0173253
0.0178797
0.0184465
0.019022
0.0196018
0.0201807
0.0207525
0.0213107
0.0218487
0.0223593
0.0228353
0.0232697
0.023655
0.0239835
0.0242469
0.0244355
0.0245373
0.216898
0.0941433
0.0486083
0.030452
0.0223192
0.0181306
0.0156846
0.0141192
0.0130591
0.0123194
0.0117982
0.0114342
0.0111886
0.0110349
0.0109551
0.0109359
0.0109677
0.0110429
0.0111561
0.0113027
0.0114793
0.0116832
0.0119124
0.0121652
0.0124406
0.0127375
0.0130557
0.0133946
0.013754
0.014134
0.0145342
0.0149543
0.0153938
0.0158516
0.0163263
0.0168156
0.0173166
0.0178256
0.018338
0.0188483
0.0193504
0.0198377
0.0203031
0.0207395
0.0211396
0.0214957
0.0218003
0.022045
0.0222205
0.0223153
0.239197
0.103002
0.0530212
0.0332333
0.0243706
0.0197608
0.0170155
0.015212
0.0139529
0.013043
0.0123739
0.0118793
0.0115165
0.0112563
0.0110783
0.0109677
0.0109134
0.0109071
0.0109422
0.0110136
0.0111173
0.0112499
0.0114089
0.0115923
0.0117986
0.0120264
0.012275
0.0125438
0.0128324
0.0131405
0.0134681
0.013815
0.0141808
0.014565
0.0149667
0.0153844
0.0158158
0.0162581
0.0167076
0.0171593
0.0176076
0.0180464
0.0184686
0.0188673
0.0192349
0.0195637
0.0198461
0.0200735
0.0202369
0.0203254
0.261725
0.111887
0.0574426
0.0360304
0.0264439
0.0214162
0.0183727
0.0163309
0.0148726
0.0137929
0.0129771
0.012354
0.0118767
0.0115133
0.0112409
0.0110429
0.0109071
0.0108238
0.0107858
0.0107871
0.0108232
0.0108901
0.0109849
0.0111051
0.0112487
0.0114142
0.0116005
0.0118065
0.0120318
0.012276
0.0125388
0.0128201
0.0131197
0.0134374
0.0137726
0.0141244
0.0144913
0.0148712
0.015261
0.0156568
0.0160535
0.0164454
0.016826
0.0171882
0.0175245
0.0178273
0.0180885
0.0182997
0.0184519
0.0185344
0.284422
0.120779
0.0618647
0.0388386
0.028536
0.0230944
0.0197547
0.0174753
0.0158177
0.0145682
0.0136062
0.0128557
0.012266
0.0118019
0.0114381
0.0111561
0.0109422
0.0107858
0.0106786
0.010614
0.0105868
0.0105927
0.0106281
0.0106901
0.0107765
0.0108853
0.0110151
0.0111647
0.0113332
0.01152
0.0117249
0.0119475
0.0121877
0.0124454
0.0127203
0.0130119
0.0133192
0.0136408
0.0139745
0.0143171
0.0146642
0.0150107
0.0153507
0.0156773
0.0159832
0.0162606
0.0165014
0.016697
0.0168384
0.0169153
0.307241
0.129665
0.0662827
0.0416551
0.0306447
0.0247942
0.0211607
0.0186447
0.016788
0.0153686
0.0142604
0.0133832
0.0126823
0.0121192
0.0116661
0.0113027
0.0110136
0.0107871
0.010614
0.010487
0.0104002
0.0103487
0.0103287
0.0103368
0.0103704
0.0104272
0.0105054
0.0106037
0.0107208
0.010856
0.0110088
0.0111787
0.0113655
0.0115691
0.0117895
0.0120263
0.012279
0.0125467
0.0128278
0.0131199
0.0134195
0.0137222
0.0140226
0.0143143
0.0145902
0.0148426
0.0150632
0.0152436
0.0153745
0.0154459
0.330148
0.138535
0.0706933
0.0444779
0.0327685
0.0265142
0.0225902
0.0198392
0.0177837
0.016194
0.0149395
0.0139357
0.0131241
0.012463
0.0119223
0.0114793
0.0111173
0.0108232
0.0105868
0.0104002
0.0102567
0.0101511
0.010079
0.0100367
0.0100211
0.0100298
0.0100606
0.0101119
0.0101822
0.0102706
0.0103762
0.0104986
0.0106373
0.0107923
0.0109634
0.0111505
0.0113533
0.0115713
0.0118035
0.0120481
0.0123025
0.0125629
0.0128246
0.013082
0.0133281
0.0135556
0.0137562
0.0139214
0.0140419
0.0141079
0.353113
0.147383
0.0750944
0.0473057
0.0349061
0.0282536
0.0240425
0.0210584
0.0188049
0.0170449
0.0156435
0.0145126
0.0135903
0.0128319
0.0122044
0.0116832
0.0112499
0.0108901
0.0105927
0.0103487
0.0101511
0.009994
0.00987254
0.0097827
0.00972111
0.00968493
0.00967179
0.00967972
0.00970711
0.0097527
0.0098155
0.00989479
0.00999008
0.0101011
0.0102277
0.0103697
0.0105271
0.0106995
0.0108864
0.0110866
0.0112982
0.0115181
0.0117424
0.0119659
0.0121825
0.0123851
0.0125655
0.0127154
0.0128254
0.0128859
0.37611
0.156204
0.0794841
0.0501372
0.0370563
0.0300111
0.0255168
0.022302
0.0198516
0.0179213
0.0163725
0.0151139
0.0140806
0.0132248
0.0125109
0.0119124
0.0114089
0.0109849
0.0106281
0.0103287
0.010079
0.00987254
0.00970408
0.00956919
0.00946415
0.00938585
0.00933165
0.00929932
0.00928703
0.00929328
0.00931688
0.00935692
0.00941274
0.0094839
0.00957015
0.00967137
0.00978748
0.00991833
0.0100636
0.0102225
0.0103939
0.0105752
0.0107632
0.0109537
0.011141
0.0113186
0.0114786
0.0116129
0.0117122
0.011767
0.399117
0.16499
0.0838608
0.0529712
0.0392178
0.0317855
0.027012
0.0235693
0.0209235
0.0188234
0.0171268
0.0157397
0.0145946
0.0136409
0.0128408
0.0121652
0.0115923
0.0111051
0.0106901
0.0103368
0.0100367
0.0097827
0.00956919
0.00939131
0.00924503
0.00912693
0.00903412
0.00896415
0.00891494
0.00888479
0.00887229
0.00887635
0.00889613
0.00893103
0.00898068
0.00904486
0.00912346
0.0092164
0.00932349
0.00944433
0.00957805
0.00972286
0.00987621
0.0100345
0.010193
0.0103455
0.0104849
0.0106032
0.0106915
0.0107405
0.422108
0.173737
0.0882223
0.0558062
0.0413889
0.0335752
0.0285267
0.0248593
0.02202
0.0197509
0.0179063
0.0163901
0.0151323
0.0140801
0.0131931
0.0124406
0.0117986
0.0112487
0.0107765
0.0103704
0.0100211
0.00972111
0.00946415
0.00924503
0.00905936
0.00890344
0.00877413
0.00866872
0.00858495
0.00852089
0.00847495
0.00844584
0.00843254
0.0084343
0.00845059
0.00848107
0.00852556
0.00858396
0.00865616
0.00874193
0.00884072
0.00895131
0.00907166
0.00919892
0.00932901
0.00945662
0.00957519
0.00967711
0.00975402
0.00979701
0.445058
0.182438
0.0925661
0.0586402
0.0435678
0.0353781
0.0300588
0.0261702
0.0231401
0.0207032
0.0187109
0.017065
0.0156936
0.014542
0.0135675
0.0127375
0.0120264
0.0114142
0.0108853
0.0104272
0.0100298
0.00968493
0.00938585
0.00912693
0.00890344
0.00871138
0.00854734
0.0084084
0.00829207
0.00819624
0.00811912
0.00805925
0.00801544
0.00798675
0.0079725
0.00797223
0.00798563
0.00801256
0.00805291
0.00810651
0.00817303
0.00825171
0.00834091
0.00843844
0.00854096
0.00864394
0.00874154
0.00882683
0.00889198
0.0089287
0.46794
0.191085
0.0968892
0.061471
0.0457522
0.0371919
0.0316063
0.0275002
0.0242821
0.0216793
0.0195401
0.0177643
0.0162786
0.0150265
0.0139638
0.0130557
0.012275
0.0116005
0.0110151
0.0105054
0.0100606
0.00967179
0.00933165
0.00903412
0.00877413
0.00854734
0.00835009
0.00817923
0.00803207
0.0079063
0.00779996
0.0077114
0.00763926
0.00758245
0.00754013
0.00751168
0.00749669
0.0074949
0.00750615
0.00753031
0.00756715
0.00761619
0.00767621
0.0077455
0.00782145
0.00790028
0.007977
0.00804544
0.00809855
0.00812877
0.490724
0.19967
0.101188
0.0642957
0.0479393
0.0390138
0.0331663
0.0288467
0.0254439
0.0226776
0.0203928
0.0184875
0.0168871
0.0155337
0.0143816
0.0133946
0.0125438
0.0118065
0.0111647
0.0106037
0.0101119
0.00967972
0.00929932
0.00896415
0.00866872
0.0084084
0.00817923
0.00797784
0.00780133
0.00764719
0.00751329
0.00739782
0.00729926
0.00721635
0.00714809
0.00709372
0.00705269
0.00702463
0.00700929
0.00700651
0.00701611
0.00703777
0.0070706
0.0071133
0.00716385
0.00721925
0.00727535
0.00732691
0.00736777
0.00739133
0.513378
0.208183
0.105457
0.067111
0.0501259
0.0408406
0.0347356
0.0302067
0.026623
0.0236962
0.0212676
0.0192336
0.0175185
0.0160633
0.014821
0.013754
0.0128324
0.0120318
0.0113332
0.0107208
0.0101822
0.00970711
0.00928703
0.00891494
0.00858495
0.00829207
0.00803207
0.00780133
0.00759672
0.00741557
0.00725556
0.00711472
0.00699136
0.00688408
0.00679174
0.00671342
0.00664843
0.00659626
0.00655657
0.00652913
0.00651375
0.00651018
0.00651783
0.00653566
0.00656217
0.00659505
0.00663104
0.00666585
0.0066944
0.00671119
0.535864
0.216613
0.109692
0.069913
0.0523084
0.0426686
0.0363106
0.0315767
0.0278163
0.0247324
0.0221626
0.0200015
0.0181721
0.0166148
0.0152816
0.014134
0.0131405
0.012276
0.01152
0.010856
0.0102706
0.0097527
0.00929328
0.00888479
0.00852089
0.00819624
0.0079063
0.00764719
0.00741557
0.00720856
0.00702367
0.00685878
0.00671204
0.00658191
0.00646709
0.00636652
0.00627937
0.00620501
0.00614298
0.00609295
0.00605467
0.00602792
0.00601232
0.00600702
0.00601094
0.00602242
0.006039
0.00605742
0.00607375
0.00608377
0.558143
0.224947
0.113887
0.0726972
0.0544827
0.0444938
0.0378872
0.0329528
0.02902
0.025783
0.0230753
0.0207892
0.0188468
0.0171877
0.0157633
0.0145342
0.0134681
0.0125388
0.0117249
0.0110088
0.0103762
0.0098155
0.00931688
0.00887229
0.00847495
0.00811912
0.00779996
0.00751329
0.00725556
0.00702367
0.00681498
0.00662717
0.00645827
0.00630658
0.00617067
0.00604934
0.00594162
0.00584674
0.00576412
0.00569334
0.00563408
0.00558607
0.00554905
0.00552235
0.00550523
0.00549655
0.00549463
0.00549722
0.00550161
0.00550495
0.580173
0.23317
0.118034
0.0754585
0.056644
0.0463115
0.039461
0.0343307
0.03023
0.0268443
0.0240023
0.0215941
0.0195406
0.0177807
0.0162652
0.0149543
0.013815
0.0128201
0.0119475
0.0111787
0.0104986
0.00989479
0.00935692
0.00887635
0.00844584
0.00805925
0.0077114
0.00739782
0.00711472
0.00685878
0.00662717
0.00641743
0.00622741
0.00605529
0.00589948
0.00575867
0.00563175
0.00551782
0.00541618
0.00532629
0.00524775
0.00518025
0.00512353
0.00507715
0.00504054
0.00501306
0.00499371
0.00498123
0.00497414
0.00497099
0.601904
0.241268
0.122126
0.0781911
0.0587873
0.0481169
0.041027
0.0357053
0.0314416
0.0279119
0.02494
0.0224133
0.0202513
0.0183921
0.0167864
0.0153938
0.0141808
0.0131197
0.0121877
0.0113655
0.0106373
0.00999008
0.00941274
0.00889613
0.00843254
0.00801544
0.00763926
0.00729926
0.00699136
0.00671204
0.00645827
0.00622741
0.00601717
0.00582557
0.00565091
0.00549173
0.0053468
0.0052151
0.00509581
0.00498827
0.00489198
0.00480658
0.00473179
0.00466734
0.00461282
0.00456794
0.00453238
0.00450577
0.00448782
0.00447852
0.623286
0.249223
0.126154
0.0808885
0.0609068
0.0499045
0.0425799
0.0370716
0.0326497
0.028981
0.0258839
0.0232428
0.0209757
0.0190198
0.0173253
0.0158516
0.014565
0.0134374
0.0124454
0.0115691
0.0107923
0.0101011
0.0094839
0.00893103
0.0084343
0.00798675
0.00758245
0.00721635
0.00688408
0.00658191
0.00630658
0.00605529
0.00582557
0.00561532
0.00542269
0.0052461
0.00508419
0.00493583
0.00480008
0.00467617
0.00456352
0.00446167
0.00437033
0.00428934
0.00421842
0.00415762
0.00410716
0.0040675
0.00403949
0.00402446
0.644261
0.257015
0.130108
0.0835434
0.0629961
0.0516682
0.0441138
0.0384238
0.0338489
0.0300463
0.026829
0.0240783
0.0217101
0.0196606
0.0178797
0.0163263
0.0149667
0.0137726
0.0127203
0.0117895
0.0109634
0.0102277
0.00957015
0.00898068
0.00845059
0.0079725
0.00754013
0.00714809
0.00679174
0.00646709
0.00617067
0.00589948
0.00565091
0.00542269
0.00521284
0.00501965
0.00484166
0.00467761
0.00452644
0.0043873
0.00425949
0.00414251
0.00403603
0.00393993
0.00385411
0.00377887
0.00371492
0.00366346
0.00362634
0.00360612
0.664768
0.264624
0.133977
0.0861478
0.0650482
0.0534016
0.0456227
0.0397558
0.0350331
0.031102
0.02777
0.0249147
0.02245
0.0203109
0.0184465
0.0168156
0.0153844
0.0141244
0.0130119
0.0120263
0.0111505
0.0103697
0.00967137
0.00904486
0.00848107
0.00797223
0.00751168
0.00709372
0.00671342
0.00636652
0.00604934
0.00575867
0.00549173
0.0052461
0.00501965
0.00481056
0.00461724
0.00443833
0.00427266
0.00411928
0.00397741
0.00384649
0.00372616
0.00361631
0.00351707
0.00342892
0.00335298
0.00329111
0.00324599
0.00322123
0.68474
0.272026
0.137749
0.0886926
0.0670556
0.0550979
0.0470999
0.0410614
0.0361961
0.032142
0.0287008
0.0257464
0.0231903
0.0209661
0.019022
0.0173166
0.0158158
0.0144913
0.0133192
0.012279
0.0113533
0.0105271
0.00978748
0.00912346
0.00852556
0.00798563
0.00749669
0.00705269
0.00664843
0.00627937
0.00594162
0.00563175
0.0053468
0.00508419
0.00484166
0.00461724
0.00440924
0.00421618
0.0040368
0.00387006
0.00371512
0.00357135
0.00343838
0.00331615
0.00320494
0.00310545
0.00301917
0.00294845
0.00289666
0.00286815
0.704105
0.279195
0.14141
0.0911683
0.0690101
0.0567496
0.0485385
0.0423339
0.0373315
0.03316
0.0296152
0.0265674
0.0239254
0.0216211
0.0196018
0.0178256
0.0162581
0.0148712
0.0136408
0.0125467
0.0115713
0.0106995
0.00991833
0.0092164
0.00858396
0.00801256
0.0074949
0.00702463
0.00659626
0.00620501
0.00584674
0.00551782
0.0052151
0.00493583
0.00467761
0.00443833
0.00421618
0.00400958
0.00381719
0.00363788
0.00347075
0.00331517
0.00317074
0.00303747
0.00291582
0.0028067
0.00271191
0.00263418
0.00257728
0.00254598
0.722786
0.286105
0.144946
0.0935645
0.070903
0.0583489
0.0499313
0.0435663
0.0384324
0.0341492
0.0305067
0.0273713
0.0246491
0.0222702
0.0201807
0.018338
0.0167076
0.015261
0.0139745
0.0128278
0.0118035
0.0108864
0.0100636
0.00932349
0.00865616
0.00805291
0.00750615
0.00700929
0.00655657
0.00614298
0.00576412
0.00541618
0.00509581
0.00480008
0.00452644
0.00427266
0.0040368
0.00381719
0.00361239
0.00342123
0.00324277
0.00307636
0.00292167
0.00277879
0.00264835
0.00253156
0.0024304
0.00234781
0.00228766
0.00225471
0.740699
0.292726
0.148341
0.0958694
0.0727246
0.0598875
0.0512707
0.0447515
0.0394921
0.0351029
0.0313685
0.0281512
0.0253546
0.0229067
0.0207525
0.0188483
0.0171593
0.0156568
0.0143171
0.0131199
0.0120481
0.0110866
0.0102225
0.00944433
0.00874193
0.00810651
0.00753031
0.00700651
0.00652913
0.00609295
0.00569334
0.00532629
0.00498827
0.00467617
0.0043873
0.00411928
0.00387006
0.00363788
0.00342123
0.00321889
0.00302993
0.00285372
0.00269004
0.00253914
0.00240185
0.00227964
0.00217464
0.00208974
0.00202851
0.00199523
0.757756
0.299027
0.151577
0.0980706
0.0744647
0.0613564
0.0525487
0.0458822
0.0405034
0.0360142
0.0321937
0.0289005
0.0260352
0.0235242
0.0213107
0.0193504
0.0176076
0.0160535
0.0146642
0.0134195
0.0123025
0.0112982
0.0103939
0.00957805
0.00884072
0.00817303
0.00756715
0.00701611
0.00651375
0.00605467
0.00563408
0.00524775
0.00489198
0.00456352
0.00425949
0.00397741
0.00371512
0.00347075
0.00324277
0.00302993
0.00283133
0.00264645
0.00247523
0.00231816
0.00217632
0.00205138
0.00194547
0.00186112
0.00180118
0.00176896
0.773859
0.304971
0.154637
0.100155
0.0761123
0.0627463
0.053757
0.0469508
0.0414592
0.0368762
0.0329755
0.0296122
0.0266841
0.0241157
0.0218487
0.0198377
0.0180464
0.0164454
0.0150107
0.0137222
0.0125629
0.0115181
0.0105752
0.00972286
0.00895131
0.00825171
0.00761619
0.00703777
0.00651018
0.00602792
0.00558607
0.00518025
0.00480658
0.00446167
0.00414251
0.00384649
0.00357135
0.00331517
0.00307636
0.00285372
0.00264645
0.0024542
0.00227718
0.00211615
0.00197247
0.00184788
0.00174427
0.00166343
0.00160704
0.00157716
0.788904
0.310523
0.157499
0.102107
0.0776556
0.0640471
0.0548869
0.0479492
0.0423521
0.0376818
0.0337071
0.0302795
0.0272944
0.0246742
0.0223593
0.0203031
0.0184686
0.016826
0.0153507
0.0140226
0.0128246
0.0117424
0.0107632
0.00987621
0.00907166
0.00834091
0.00767621
0.0070706
0.00651783
0.00601232
0.00554905
0.00512353
0.00473179
0.00437033
0.00403603
0.00372616
0.00343838
0.00317074
0.00292167
0.00269004
0.00247523
0.00227718
0.0020964
0.00193403
0.00179157
0.00167061
0.00157241
0.00149764
0.00144661
0.00141996
0.802776
0.315639
0.160141
0.103911
0.0790816
0.0652481
0.0559288
0.0488692
0.0431745
0.0384238
0.0343814
0.0308954
0.027859
0.0251926
0.0228353
0.0207395
0.0188673
0.0171882
0.0156773
0.0143143
0.013082
0.0119659
0.0109537
0.0100345
0.00919892
0.00843844
0.0077455
0.0071133
0.00653566
0.00600702
0.00552235
0.00507715
0.00466734
0.00428934
0.00393993
0.00361631
0.00331615
0.00303747
0.00277879
0.00253914
0.00231816
0.00211615
0.00193403
0.00177318
0.00163507
0.00152075
0.00143044
0.00136346
0.00131873
0.00129572
0.815345
0.320273
0.162537
0.105548
0.080376
0.0663371
0.0568726
0.0497017
0.0439181
0.0390946
0.0349911
0.031453
0.0283709
0.0256639
0.0232697
0.0211396
0.0192349
0.0175245
0.0159832
0.0145902
0.0133281
0.0121825
0.011141
0.010193
0.00932901
0.00854096
0.00782145
0.00716385
0.00656217
0.00601094
0.00550523
0.00504054
0.00461282
0.00421842
0.00385411
0.00351707
0.00320494
0.00291582
0.00264835
0.00240185
0.00217632
0.00197247
0.00179157
0.00163507
0.00150403
0.00139853
0.00131748
0.00125885
0.00122046
0.00120096
0.826461
0.324369
0.164657
0.106999
0.0815223
0.0673006
0.0577066
0.0504365
0.044574
0.0396859
0.0355286
0.0319447
0.028823
0.0260808
0.023655
0.0214957
0.0195637
0.0178273
0.0162606
0.0148426
0.0135556
0.0123851
0.0113186
0.0103455
0.00945662
0.00864394
0.00790028
0.00721925
0.00659505
0.00602242
0.00549655
0.00501306
0.00456794
0.00415762
0.00377887
0.00342892
0.00310545
0.0028067
0.00253156
0.00227964
0.00205138
0.00184788
0.00167061
0.00152075
0.00139853
0.00130278
0.00123106
0.00118029
0.0011476
0.00113118
0.835941
0.327862
0.166467
0.108238
0.0825008
0.0681223
0.0584172
0.0510619
0.0451316
0.0401884
0.0359852
0.0323623
0.0292071
0.0264356
0.0239835
0.0218003
0.0198461
0.0180885
0.0165014
0.0150632
0.0137562
0.0125655
0.0114786
0.0104849
0.00957519
0.00874154
0.007977
0.00727535
0.00663104
0.006039
0.00549463
0.00499371
0.00453238
0.00410716
0.00371492
0.00335298
0.00301917
0.00271191
0.0024304
0.00217464
0.00194547
0.00174427
0.00157241
0.00143044
0.00131748
0.00123106
0.00116768
0.0011236
0.00109562
0.00108171
0.843559
0.330668
0.167922
0.109235
0.0832876
0.0687825
0.0589874
0.0515633
0.0455783
0.0405905
0.0363504
0.0326964
0.0295145
0.0267197
0.0242469
0.022045
0.0200735
0.0182997
0.016697
0.0152436
0.0139214
0.0127154
0.0116129
0.0106032
0.00967711
0.00882683
0.00804544
0.00732691
0.00666585
0.00605742
0.00549722
0.00498123
0.00450577
0.0040675
0.00366346
0.00329111
0.00294845
0.00263418
0.00234781
0.00208974
0.00186112
0.00166343
0.00149764
0.00136346
0.00125885
0.00118029
0.0011236
0.00108474
0.00106042
0.00104849
0.849027
0.332681
0.168967
0.10995
0.0838526
0.0692563
0.0593963
0.0519225
0.045898
0.0408782
0.0366115
0.0329352
0.0297342
0.0269229
0.0244355
0.0222205
0.0202369
0.0184519
0.0168384
0.0153745
0.0140419
0.0128254
0.0117122
0.0106915
0.00975402
0.00889198
0.00809855
0.00736777
0.0066944
0.00607375
0.00550161
0.00497414
0.00448782
0.00403949
0.00362634
0.00324599
0.00289666
0.00257728
0.00228766
0.00202851
0.00180118
0.00160704
0.00144661
0.00131873
0.00122046
0.0011476
0.00109562
0.00106042
0.00103875
0.00102833
0.85198
0.333769
0.169532
0.110337
0.0841579
0.0695123
0.0596171
0.0521164
0.0460706
0.0410334
0.0367524
0.0330641
0.0298528
0.0270326
0.0245373
0.0223153
0.0203254
0.0185344
0.0169153
0.0154459
0.0141079
0.0128859
0.011767
0.0107405
0.00979701
0.0089287
0.00812877
0.00739133
0.00671119
0.00608377
0.00550495
0.00497099
0.00447852
0.00402446
0.00360612
0.00322123
0.00286815
0.00254598
0.00225471
0.00199523
0.00176896
0.00157716
0.00141996
0.00129572
0.00120096
0.00113118
0.00108171
0.00104849
0.00102833
0.00101894
)
;

boundaryField
{
    bottomWall
    {
        lowReCorrection 0;
        type            epsilonWallFunction;
        value           nonuniform List<scalar> 
50
(
0.0113863
0.0125755
0.0154901
0.0204138
0.0275191
0.0368602
0.048377
0.0619211
0.0772888
0.0942473
0.112556
0.13198
0.152303
0.173333
0.194909
0.216898
0.239197
0.261725
0.284422
0.307241
0.330148
0.353113
0.37611
0.399117
0.422108
0.445058
0.46794
0.490724
0.513378
0.535864
0.558143
0.580173
0.601904
0.623286
0.644261
0.664768
0.68474
0.704105
0.722786
0.740699
0.757756
0.773859
0.788904
0.802776
0.815345
0.826461
0.835941
0.843559
0.849027
0.85198
)
;
    }
    leftWall
    {
        lowReCorrection 0;
        type            epsilonWallFunction;
        value           nonuniform List<scalar> 
50
(
0.0113863
0.0125755
0.0154901
0.0204138
0.0275191
0.0368602
0.048377
0.0619211
0.0772888
0.0942473
0.112556
0.13198
0.152303
0.173333
0.194909
0.216898
0.239197
0.261725
0.284422
0.307241
0.330148
0.353113
0.37611
0.399117
0.422108
0.445058
0.46794
0.490724
0.513378
0.535864
0.558143
0.580173
0.601904
0.623286
0.644261
0.664768
0.68474
0.704105
0.722786
0.740699
0.757756
0.773859
0.788904
0.802776
0.815345
0.826461
0.835941
0.843559
0.849027
0.85198
)
;
    }
    topSym
    {
        type            symmetryPlane;
    }
    rightSym
    {
        type            symmetryPlane;
    }
    inlet
    {
        type            cyclic;
    }
    outlet
    {
        type            cyclic;
    }
}


// ************************************************************************* //
