/*--------------------------------*- C++ -*----------------------------------*\
| =========                 |                                                 |
| \\      /  F ield         | OpenFOAM: The Open Source CFD Toolbox           |
|  \\    /   O peration     | Version:  v1912                                 |
|   \\  /    A nd           | Website:  www.openfoam.com                      |
|    \\/     M anipulation  |                                                 |
\*---------------------------------------------------------------------------*/
FoamFile
{
    version     2.0;
    format      ascii;
    class       volScalarField;
    location    "2000";
    object      turbulenceProperties:k;
}
// * * * * * * * * * * * * * * * * * * * * * * * * * * * * * * * * * * * * * //

dimensions      [0 2 -2 0 0 0 0];


internalField   nonuniform List<scalar> 
2500
(
0.00125017
0.00133577
0.00153491
0.001845
0.00225149
0.00273581
0.0032795
0.00386611
0.00448187
0.00511557
0.00575828
0.00640304
0.00704455
0.00767895
0.00830364
0.00891699
0.00951812
0.0101067
0.0106829
0.0112469
0.0117992
0.0123402
0.0128703
0.01339
0.0138994
0.0143987
0.0148881
0.0153675
0.0158369
0.016296
0.0167447
0.0171824
0.0176088
0.0180234
0.0184255
0.0188145
0.0191894
0.0195495
0.0198938
0.0202211
0.0205304
0.0208202
0.0210892
0.0213357
0.0215578
0.0217533
0.0219193
0.0220523
0.0221475
0.0221988
0.00133577
0.00120763
0.00123268
0.00136963
0.00159101
0.00187509
0.00220414
0.00256396
0.00294342
0.00333394
0.00372904
0.0041239
0.00451508
0.00490021
0.00527783
0.00564714
0.00600786
0.00636005
0.00670397
0.00704001
0.00736862
0.00769022
0.00800521
0.00831393
0.00861665
0.00891358
0.00920484
0.00949052
0.00977061
0.010045
0.0103137
0.0105764
0.0108329
0.0110829
0.0113261
0.0115618
0.0117898
0.0120094
0.0122199
0.0124207
0.0126109
0.0127896
0.0129559
0.0131087
0.0132467
0.0133684
0.0134719
0.0135549
0.0136144
0.0136465
0.00153491
0.00123268
0.00113372
0.00117159
0.00130515
0.00150678
0.00175663
0.00203983
0.00234503
0.0026636
0.00298898
0.00331632
0.00364216
0.00396414
0.00428084
0.00459146
0.00489573
0.0051937
0.00548563
0.0057719
0.00605291
0.00632906
0.00660073
0.00686822
0.00713179
0.00739162
0.00764783
0.00790049
0.00814957
0.00839502
0.0086367
0.00887441
0.00910789
0.00933681
0.00956076
0.00977926
0.00999174
0.0101976
0.0103961
0.0105864
0.0107677
0.0109389
0.011099
0.0112466
0.0113805
0.0114989
0.0115998
0.011681
0.0117392
0.0117707
0.001845
0.00136963
0.00117159
0.00115479
0.00126057
0.00145161
0.00170276
0.001996
0.00231779
0.00265776
0.00300802
0.00336264
0.00371737
0.0040693
0.00441662
0.0047583
0.00509396
0.00542358
0.00574739
0.00606579
0.00637921
0.00668807
0.00699276
0.00729362
0.00759091
0.00788484
0.00817551
0.00846298
0.00874721
0.00902811
0.00930551
0.00957914
0.00984867
0.0101137
0.0103737
0.010628
0.0108761
0.0111169
0.0113498
0.0115737
0.0117873
0.0119895
0.0121788
0.0123538
0.0125127
0.0126534
0.0127735
0.0128701
0.0129395
0.012977
0.00225149
0.00159101
0.00130515
0.00126057
0.00137654
0.00160173
0.00190218
0.00225421
0.00264052
0.00304816
0.00346743
0.0038912
0.00431439
0.00473364
0.00514685
0.0055529
0.00595138
0.00634234
0.00672611
0.00710317
0.00747406
0.00783932
0.00819942
0.00855478
0.00890574
0.00925254
0.00959533
0.0099342
0.0102691
0.0106
0.0109267
0.0112488
0.011566
0.0118779
0.0121838
0.012483
0.0127747
0.0130579
0.0133318
0.0135949
0.0138461
0.0140837
0.0143063
0.0145119
0.0146985
0.0148638
0.0150049
0.0151183
0.0151998
0.0152438
0.00273581
0.00187509
0.00150678
0.00145161
0.00160173
0.00188748
0.00226261
0.00269575
0.00316497
0.00365469
0.00415378
0.00465442
0.00515131
0.00564105
0.0061217
0.00659234
0.00705277
0.00750326
0.00794436
0.00837675
0.00880114
0.00921823
0.00962864
0.0100329
0.0104315
0.0108246
0.0112127
0.0115957
0.0119738
0.0123468
0.0127146
0.0130769
0.0134333
0.0137833
0.0141263
0.0144616
0.0147882
0.0151051
0.0154113
0.0157053
0.0159857
0.016251
0.0164993
0.0167285
0.0169365
0.0171207
0.0172778
0.017404
0.0174947
0.0175437
0.0032795
0.00220414
0.00175663
0.00170276
0.00190218
0.00226261
0.00272269
0.00324211
0.00379443
0.00436208
0.00493343
0.00550088
0.00605962
0.00660687
0.00714123
0.00766228
0.00817025
0.00866575
0.00914963
0.00962282
0.0100862
0.0105408
0.0109871
0.0114261
0.0118581
0.0122837
0.0127031
0.0131166
0.0135242
0.013926
0.0143218
0.0147113
0.0150942
0.01547
0.0158381
0.0161976
0.0165477
0.0168873
0.0172152
0.01753
0.0178302
0.0181141
0.0183797
0.0186249
0.0188474
0.0190442
0.0192121
0.0193471
0.0194439
0.0194962
0.00386611
0.00256396
0.00203983
0.001996
0.00225421
0.00269575
0.00324211
0.00384384
0.00447067
0.00510424
0.00573351
0.00635192
0.00695585
0.00754353
0.00811446
0.0086689
0.00920762
0.00973167
0.0102422
0.0107404
0.0112274
0.0117043
0.0121719
0.0126311
0.0130825
0.0135268
0.0139642
0.0143951
0.0148196
0.0152378
0.0156496
0.0160548
0.0164531
0.0168439
0.0172267
0.0176006
0.0179648
0.0183181
0.0186592
0.0189868
0.0192993
0.0195948
0.0198714
0.0201268
0.0203585
0.0205635
0.0207384
0.0208789
0.0209797
0.0210342
0.00448187
0.00294342
0.00234503
0.00231779
0.00264052
0.00316497
0.00379443
0.00447067
0.00516084
0.00584698
0.00651957
0.00717383
0.00780769
0.00842064
0.0090132
0.00958638
0.0101416
0.0106802
0.0112037
0.0117137
0.0122114
0.0126979
0.0131745
0.013642
0.0141012
0.0145528
0.0149972
0.0154348
0.0158659
0.0162905
0.0167088
0.0171204
0.0175251
0.0179226
0.018312
0.0186928
0.0190639
0.0194241
0.0197723
0.0201069
0.0204263
0.0207286
0.0210116
0.0212731
0.0215105
0.0217206
0.0218998
0.0220438
0.0221472
0.0222031
0.00511557
0.00333394
0.0026636
0.00265776
0.00304816
0.00365469
0.00436208
0.00510424
0.00584698
0.00657388
0.00727765
0.00795566
0.00860761
0.00923437
0.00983744
0.0104186
0.0109796
0.0115225
0.012049
0.0125608
0.0130594
0.0135462
0.0140224
0.014489
0.0149469
0.0153969
0.0158396
0.0162755
0.0167049
0.0171281
0.0175451
0.0179558
0.01836
0.0187573
0.0191471
0.0195288
0.0199012
0.0202632
0.0206136
0.0209509
0.0212732
0.0215786
0.0218649
0.0221297
0.0223702
0.0225832
0.022765
0.0229112
0.0230161
0.0230728
0.00575828
0.00372904
0.00298898
0.00300802
0.00346743
0.00415378
0.00493343
0.00573351
0.00651957
0.00727765
0.00800327
0.00869615
0.00935779
0.00999039
0.0105964
0.0111781
0.011738
0.0122783
0.0128009
0.0133077
0.0138005
0.0142807
0.0147497
0.0152087
0.0156587
0.0161004
0.0165348
0.0169624
0.0173837
0.0177989
0.0182084
0.0186121
0.0190099
0.0194016
0.0197865
0.020164
0.0205331
0.0208927
0.0212414
0.0215776
0.0218996
0.0222053
0.0224924
0.0227582
0.0229999
0.0232143
0.0233974
0.0235446
0.0236504
0.0237076
0.00640304
0.0041239
0.00331632
0.00336264
0.0038912
0.00465442
0.00550088
0.00635192
0.00717383
0.00795566
0.00869615
0.00939753
0.0100631
0.0106962
0.0113002
0.011878
0.0124323
0.0129656
0.0134801
0.0139777
0.0144603
0.0149296
0.0153869
0.0158337
0.0162709
0.0166996
0.0171207
0.0175349
0.0179429
0.0183451
0.018742
0.0191336
0.0195201
0.0199011
0.0202765
0.0206454
0.0210071
0.0213603
0.0217038
0.0220359
0.0223547
0.0226581
0.0229437
0.0232087
0.0234501
0.0236644
0.0238477
0.0239952
0.0241012
0.0241586
0.00704455
0.00451508
0.00364216
0.00371737
0.00431439
0.00515131
0.00605962
0.00695585
0.00780769
0.00860761
0.00935779
0.0100631
0.0107286
0.0113588
0.0119577
0.0125288
0.0130749
0.0135987
0.0141026
0.0145886
0.0150586
0.0155143
0.0159572
0.0163888
0.0168101
0.0172224
0.0176268
0.0180239
0.0184148
0.0188
0.01918
0.0195553
0.0199261
0.0202923
0.0206538
0.0210101
0.0213605
0.0217037
0.0220385
0.0223634
0.0226763
0.022975
0.023257
0.0235193
0.0237588
0.0239719
0.0241544
0.0243014
0.0244072
0.0244645
0.00767895
0.00490021
0.00396414
0.0040693
0.00473364
0.00564105
0.00660687
0.00754353
0.00842064
0.00923437
0.00999039
0.0106962
0.0113588
0.0119837
0.0125756
0.0131382
0.0136747
0.0141878
0.0146799
0.0151531
0.0156093
0.0160501
0.0164772
0.0168919
0.0172956
0.0176895
0.0180748
0.0184524
0.0188233
0.0191884
0.0195484
0.0199039
0.0202553
0.020603
0.0209469
0.0212868
0.021622
0.0219517
0.0222745
0.022589
0.0228932
0.0231847
0.0234608
0.0237187
0.0239548
0.0241653
0.0243461
0.0244919
0.0245969
0.0246538
0.00830364
0.00527783
0.00428084
0.00441662
0.00514685
0.0061217
0.00714123
0.00811446
0.0090132
0.00983744
0.0105964
0.0113002
0.0119577
0.0125756
0.013159
0.0137122
0.0142383
0.0147401
0.0152199
0.0156799
0.0161218
0.0165474
0.0169581
0.0173554
0.0177407
0.0181151
0.01848
0.0188366
0.0191857
0.0195286
0.0198662
0.0201992
0.0205284
0.0208543
0.0211772
0.0214971
0.0218137
0.0221263
0.0224338
0.0227347
0.0230272
0.0233089
0.023577
0.0238283
0.0240593
0.024266
0.0244439
0.0245878
0.0246915
0.0247478
0.00891699
0.00564714
0.00459146
0.0047583
0.0055529
0.00659234
0.00766228
0.0086689
0.00958638
0.0104186
0.0111781
0.011878
0.0125288
0.0131382
0.0137122
0.014255
0.0147702
0.0152605
0.015728
0.0161748
0.0166025
0.0170129
0.0174074
0.0177873
0.018154
0.0185088
0.0188529
0.0191876
0.0195141
0.0198335
0.020147
0.0204556
0.0207602
0.0210618
0.0213608
0.0216577
0.0219525
0.0222446
0.0225334
0.0228176
0.0230953
0.0233643
0.0236218
0.0238645
0.0240886
0.0242899
0.0244637
0.0246047
0.0247066
0.0247619
0.00951812
0.00600786
0.00489573
0.00509396
0.00595138
0.00705277
0.00817025
0.00920762
0.0101416
0.0109796
0.011738
0.0124323
0.0130749
0.0136747
0.0142383
0.0147702
0.0152741
0.0157526
0.0162078
0.0166416
0.0170556
0.0174512
0.0178298
0.0181928
0.0185413
0.0188767
0.0192002
0.019513
0.0198165
0.0201118
0.0204003
0.0206833
0.0209618
0.0212371
0.02151
0.0217812
0.0220511
0.0223198
0.0225866
0.0228508
0.0231106
0.023364
0.0236081
0.0238396
0.0240548
0.024249
0.0244175
0.0245546
0.0246539
0.0247079
0.0101067
0.00636005
0.0051937
0.00542358
0.00634234
0.00750326
0.00866575
0.00973167
0.0106802
0.0115225
0.0122783
0.0129656
0.0135987
0.0141878
0.0147401
0.0152605
0.0157526
0.016219
0.016662
0.017083
0.0174836
0.017865
0.0182284
0.0185751
0.0189061
0.0192227
0.019526
0.0198174
0.020098
0.0203693
0.0206326
0.0208893
0.0211407
0.0213884
0.0216334
0.0218768
0.0221195
0.0223618
0.0226037
0.0228446
0.0230834
0.023318
0.0235458
0.0237637
0.0239675
0.0241528
0.0243143
0.0244463
0.0245423
0.0245946
0.0106829
0.00670397
0.00548563
0.00574739
0.00672611
0.00794436
0.00914963
0.0102422
0.0112037
0.012049
0.0128009
0.0134801
0.0141026
0.0146799
0.0152199
0.015728
0.0162078
0.016662
0.0170925
0.0175009
0.0178884
0.018256
0.0186049
0.018936
0.0192503
0.0195489
0.0198329
0.0201035
0.0203619
0.0206095
0.0208477
0.0210781
0.0213021
0.0215213
0.0217373
0.0219514
0.0221648
0.0223784
0.0225927
0.0228074
0.0230219
0.0232346
0.0234431
0.0236444
0.0238343
0.0240084
0.0241613
0.0242869
0.0243786
0.0244287
0.0112469
0.00704001
0.0057719
0.00606579
0.00710317
0.00837675
0.00962282
0.0107404
0.0117137
0.0125608
0.0133077
0.0139777
0.0145886
0.0151531
0.0156799
0.0161748
0.0166416
0.017083
0.0175009
0.0178966
0.0182711
0.0186255
0.0189603
0.0192766
0.019575
0.0198564
0.020122
0.0203726
0.0206096
0.0208343
0.021048
0.0212524
0.021449
0.0216396
0.0218259
0.0220097
0.0221924
0.0223754
0.0225596
0.0227455
0.0229328
0.0231204
0.0233065
0.0234881
0.0236614
0.0238219
0.023964
0.0240816
0.024168
0.0242154
0.0117992
0.00736862
0.00605291
0.00637921
0.00747406
0.00880114
0.0100862
0.0112274
0.0122114
0.0130594
0.0138005
0.0144603
0.0150586
0.0156093
0.0161218
0.0166025
0.0170556
0.0174836
0.0178884
0.0182711
0.0186328
0.0189739
0.0192952
0.0195971
0.0198803
0.0201456
0.0203936
0.0206253
0.0208419
0.0210445
0.0212345
0.0214135
0.0215832
0.0217453
0.0219019
0.0220547
0.0222058
0.0223568
0.0225091
0.0226638
0.0228212
0.0229808
0.0231413
0.0233001
0.0234538
0.023598
0.0237271
0.023835
0.0239147
0.0239586
0.0123402
0.00769022
0.00632906
0.00668807
0.00783932
0.00921823
0.0105408
0.0117043
0.0126979
0.0135462
0.0142807
0.0149296
0.0155143
0.0160501
0.0165474
0.0170129
0.0174512
0.017865
0.018256
0.0186255
0.0189739
0.0193019
0.0196097
0.0198978
0.0201664
0.0204161
0.0206475
0.0208613
0.0210584
0.02124
0.0214073
0.0215618
0.0217053
0.0218395
0.0219665
0.0220884
0.0222073
0.0223254
0.0224444
0.022566
0.0226912
0.02282
0.0229518
0.0230848
0.0232158
0.0233407
0.0234543
0.0235504
0.0236221
0.0236618
0.0128703
0.00800521
0.00660073
0.00699276
0.00819942
0.00962864
0.0109871
0.0121719
0.0131745
0.0140224
0.0147497
0.0153869
0.0159572
0.0164772
0.0169581
0.0174074
0.0178298
0.0182284
0.0186049
0.0189603
0.0192952
0.0196097
0.0199042
0.0201785
0.020433
0.0206677
0.0208832
0.0210799
0.0212586
0.0214202
0.0215658
0.0216969
0.021815
0.0219221
0.0220201
0.0221113
0.0221981
0.0222827
0.0223676
0.0224547
0.0225457
0.0226413
0.0227417
0.0228457
0.0229508
0.0230536
0.0231489
0.023231
0.023293
0.0233276
0.01339
0.00831393
0.00686822
0.00729362
0.00855478
0.0100329
0.0114261
0.0126311
0.013642
0.014489
0.0152087
0.0158337
0.0163888
0.0168919
0.0173554
0.0177873
0.0181928
0.0185751
0.018936
0.0192766
0.0195971
0.0198978
0.0201785
0.0204391
0.0206796
0.0208998
0.0211
0.0212804
0.0214415
0.021584
0.021709
0.0218177
0.0219116
0.0219924
0.0220623
0.0221234
0.0221783
0.0222296
0.0222798
0.0223314
0.0223867
0.0224472
0.0225136
0.0225857
0.022662
0.0227394
0.0228136
0.0228792
0.0229298
0.0229583
0.0138994
0.00861665
0.00713179
0.00759091
0.00890574
0.0104315
0.0118581
0.0130825
0.0141012
0.0149469
0.0156587
0.0162709
0.0168101
0.0172956
0.0177407
0.018154
0.0185413
0.0189061
0.0192503
0.019575
0.0198803
0.0201664
0.020433
0.0206796
0.020906
0.0211118
0.021297
0.0214617
0.0216059
0.0217304
0.0218358
0.0219231
0.0219938
0.0220495
0.0220921
0.022124
0.0221476
0.0221657
0.0221812
0.0221969
0.0222154
0.0222391
0.0222695
0.0223072
0.0223516
0.0224007
0.0224509
0.0224974
0.0225345
0.0225559
0.0143987
0.00891358
0.00739162
0.00788484
0.00925254
0.0108246
0.0122837
0.0135268
0.0145528
0.0153969
0.0161004
0.0166996
0.0172224
0.0176895
0.0181151
0.0185088
0.0188767
0.0192227
0.0195489
0.0198564
0.0201456
0.0204161
0.0206677
0.0208998
0.0211118
0.0213032
0.0214736
0.0216229
0.0217509
0.0218579
0.0219445
0.0220115
0.02206
0.0220916
0.0221081
0.0221117
0.0221049
0.0220905
0.0220715
0.022051
0.0220323
0.0220181
0.0220108
0.0220119
0.0220218
0.0220396
0.0220628
0.0220876
0.0221092
0.0221223
0.0148881
0.00920484
0.00764783
0.00817551
0.00959533
0.0112127
0.0127031
0.0139642
0.0149972
0.0158396
0.0165348
0.0171207
0.0176268
0.0180748
0.01848
0.0188529
0.0192002
0.019526
0.0198329
0.020122
0.0203936
0.0206475
0.0208832
0.0211
0.021297
0.0214736
0.0216291
0.021763
0.0218751
0.0219652
0.0220338
0.0220813
0.0221087
0.0221172
0.0221087
0.022085
0.0220487
0.0220025
0.0219496
0.0218933
0.0218371
0.0217843
0.021738
0.0217007
0.0216738
0.0216576
0.021651
0.0216515
0.0216555
0.0216591
0.0153675
0.00949052
0.00790049
0.00846298
0.0099342
0.0115957
0.0131166
0.0143951
0.0154348
0.0162755
0.0169624
0.0175349
0.0180239
0.0184524
0.0188366
0.0191876
0.019513
0.0198174
0.0201035
0.0203726
0.0206253
0.0208613
0.0210799
0.0212804
0.0214617
0.0216229
0.021763
0.0218815
0.0219776
0.0220512
0.0221022
0.0221309
0.022138
0.0221244
0.0220918
0.0220419
0.0219771
0.0219001
0.0218141
0.0217224
0.0216289
0.0215373
0.0214513
0.0213741
0.0213085
0.0212561
0.0212171
0.0211908
0.0211751
0.0211679
0.0158369
0.00977061
0.00814957
0.00874721
0.0102691
0.0119738
0.0135242
0.0148196
0.0158659
0.0167049
0.0173837
0.0179429
0.0184148
0.0188233
0.0191857
0.0195141
0.0198165
0.020098
0.0203619
0.0206096
0.0208419
0.0210584
0.0212586
0.0214415
0.0216059
0.0217509
0.0218751
0.0219776
0.0220577
0.0221148
0.0221484
0.0221588
0.0221462
0.0221114
0.0220556
0.0219806
0.0218883
0.0217815
0.0216632
0.0215369
0.0214065
0.0212761
0.02115
0.0210322
0.0209265
0.0208358
0.0207622
0.0207068
0.0206695
0.0206503
0.016296
0.010045
0.00839502
0.00902811
0.0106
0.0123468
0.013926
0.0152378
0.0162905
0.0171281
0.0177989
0.0183451
0.0188
0.0191884
0.0195286
0.0198335
0.0201118
0.0203693
0.0206095
0.0208343
0.0210445
0.02124
0.0214202
0.021584
0.0217304
0.0218579
0.0219652
0.0220512
0.0221148
0.022155
0.0221714
0.0221636
0.0221317
0.0220763
0.0219982
0.0218989
0.0217802
0.0216445
0.0214949
0.0213348
0.0211682
0.0209994
0.0208332
0.0206743
0.0205275
0.0203971
0.0202871
0.0202005
0.0201399
0.0201077
0.0167447
0.0103137
0.0086367
0.00930551
0.0109267
0.0127146
0.0143218
0.0156496
0.0167088
0.0175451
0.0182084
0.018742
0.01918
0.0195484
0.0198662
0.020147
0.0204003
0.0206326
0.0208477
0.021048
0.0212345
0.0214073
0.0215658
0.021709
0.0218358
0.0219445
0.0220338
0.0221022
0.0221484
0.0221714
0.0221701
0.0221442
0.0220932
0.0220175
0.0219177
0.0217948
0.0216505
0.021487
0.0213071
0.0211141
0.020912
0.0207055
0.0204995
0.0202994
0.020111
0.0199401
0.0197923
0.0196731
0.0195876
0.0195415
0.0171824
0.0105764
0.00887441
0.00957914
0.0112488
0.0130769
0.0147113
0.0160548
0.0171204
0.0179558
0.0186121
0.0191336
0.0195553
0.0199039
0.0201992
0.0204556
0.0206833
0.0208893
0.0210781
0.0212524
0.0214135
0.0215618
0.0216969
0.0218177
0.0219231
0.0220115
0.0220813
0.0221309
0.0221588
0.0221636
0.0221442
0.0220997
0.0220296
0.0219337
0.0218124
0.0216665
0.0214973
0.0213068
0.0210974
0.0208725
0.0206359
0.0203923
0.0201471
0.0199062
0.0196762
0.0194642
0.0192778
0.0191249
0.0190137
0.018953
0.0176088
0.0108329
0.00910789
0.00984867
0.011566
0.0134333
0.0150942
0.0164531
0.0175251
0.01836
0.0190099
0.0195201
0.0199261
0.0202553
0.0205284
0.0207602
0.0209618
0.0211407
0.0213021
0.021449
0.0215832
0.0217053
0.021815
0.0219116
0.0219938
0.02206
0.0221087
0.022138
0.0221462
0.0221317
0.0220932
0.0220296
0.0219399
0.0218237
0.0216811
0.0215124
0.0213188
0.0211018
0.0208638
0.0206078
0.0203376
0.0200579
0.0197742
0.0194931
0.0192218
0.0189689
0.0187437
0.0185567
0.0184191
0.0183434
0.0180234
0.0110829
0.00933681
0.0101137
0.0118779
0.0137833
0.01547
0.0168439
0.0179226
0.0187573
0.0194016
0.0199011
0.0202923
0.020603
0.0208543
0.0210618
0.0212371
0.0213884
0.0215213
0.0216396
0.0217453
0.0218395
0.0219221
0.0219924
0.0220495
0.0220916
0.0221172
0.0221244
0.0221114
0.0220763
0.0220175
0.0219337
0.0218237
0.0216867
0.0215225
0.0213311
0.0211133
0.0208703
0.0206043
0.020318
0.020015
0.0197
0.0193788
0.0190583
0.0187465
0.0184531
0.0181896
0.0179686
0.0178048
0.0177141
0.0184255
0.0113261
0.00956076
0.0103737
0.0121838
0.0141263
0.0158381
0.0172267
0.018312
0.0191471
0.0197865
0.0202765
0.0206538
0.0209469
0.0211772
0.0213608
0.02151
0.0216334
0.0217373
0.0218259
0.0219019
0.0219665
0.0220201
0.0220623
0.0220921
0.0221081
0.0221087
0.0220918
0.0220556
0.0219982
0.0219177
0.0218124
0.0216811
0.0215225
0.0213361
0.0211217
0.0208796
0.0206109
0.0203172
0.0200011
0.0196661
0.0193168
0.018959
0.0186001
0.0182489
0.0179162
0.0176153
0.0173613
0.0171719
0.0170667
0.0188145
0.0115618
0.00977926
0.010628
0.012483
0.0144616
0.0161976
0.0176006
0.0186928
0.0195288
0.020164
0.0206454
0.0210101
0.0212868
0.0214971
0.0216577
0.0217812
0.0218768
0.0219514
0.0220097
0.0220547
0.0220884
0.0221113
0.0221234
0.022124
0.0221117
0.022085
0.0220419
0.0219806
0.0218989
0.0217948
0.0216665
0.0215124
0.0213311
0.0211217
0.0208836
0.0206169
0.0203222
0.020001
0.0196556
0.0192892
0.0189064
0.0185131
0.018117
0.0177279
0.0173576
0.017021
0.0167358
0.0165224
0.0164035
0.0191894
0.0117898
0.00999174
0.0108761
0.0127747
0.0147882
0.0165477
0.0179648
0.0190639
0.0199012
0.0205331
0.0210071
0.0213605
0.021622
0.0218137
0.0219525
0.0220511
0.0221195
0.0221648
0.0221924
0.0222058
0.0222073
0.0221981
0.0221783
0.0221476
0.0221049
0.0220487
0.0219771
0.0218883
0.0217802
0.0216505
0.0214973
0.0213188
0.0211133
0.0208796
0.0206169
0.0203249
0.0200039
0.0196551
0.0192804
0.0188831
0.0184675
0.0180398
0.0176081
0.0171829
0.0167773
0.0164078
0.0160942
0.0158592
0.0157283
0.0195495
0.0120094
0.0101976
0.0111169
0.0130579
0.0151051
0.0168873
0.0183181
0.0194241
0.0202632
0.0208927
0.0213603
0.0217037
0.0219517
0.0221263
0.0222446
0.0223198
0.0223618
0.0223784
0.0223754
0.0223568
0.0223254
0.0222827
0.0222296
0.0221657
0.0220905
0.0220025
0.0219001
0.0217815
0.0216445
0.021487
0.0213068
0.0211018
0.0208703
0.0206109
0.0203222
0.0200039
0.0196559
0.019279
0.0188751
0.0184471
0.0179996
0.0175387
0.0170732
0.0166144
0.0161768
0.0157783
0.0154404
0.0151878
0.0150472
0.0198938
0.0122199
0.0103961
0.0113498
0.0133318
0.0154113
0.0172152
0.0186592
0.0197723
0.0206136
0.0212414
0.0217038
0.0220385
0.0222745
0.0224338
0.0225334
0.0225866
0.0226037
0.0225927
0.0225596
0.0225091
0.0224444
0.0223676
0.0222798
0.0221812
0.0220715
0.0219496
0.0218141
0.0216632
0.0214949
0.0213071
0.0210974
0.0208638
0.0206043
0.0203172
0.020001
0.0196551
0.019279
0.0188735
0.0184401
0.0179817
0.0175029
0.0170104
0.0165135
0.0160245
0.0155594
0.0151374
0.0147814
0.0145165
0.0143697
0.0202211
0.0124207
0.0105864
0.0115737
0.0135949
0.0157053
0.01753
0.0189868
0.0201069
0.0209509
0.0215776
0.0220359
0.0223634
0.022589
0.0227347
0.0228176
0.0228508
0.0228446
0.0228074
0.0227455
0.0226638
0.022566
0.0224547
0.0223314
0.0221969
0.022051
0.0218933
0.0217224
0.0215369
0.0213348
0.0211141
0.0208725
0.0206078
0.020318
0.0200011
0.0196556
0.0192804
0.0188751
0.0184401
0.0179768
0.0174883
0.0169794
0.0164573
0.0159322
0.0154178
0.0149315
0.0144939
0.0141279
0.013858
0.0137095
0.0205304
0.0126109
0.0107677
0.0117873
0.0138461
0.0159857
0.0178302
0.0192993
0.0204263
0.0212732
0.0218996
0.0223547
0.0226763
0.0228932
0.0230272
0.0230953
0.0231106
0.0230834
0.0230219
0.0229328
0.0228212
0.0226912
0.0225457
0.0223867
0.0222154
0.0220323
0.0218371
0.0216289
0.0214065
0.0211682
0.020912
0.0206359
0.0203376
0.020015
0.0196661
0.0192892
0.0188831
0.0184471
0.0179817
0.0174883
0.0169702
0.0164326
0.0158838
0.0153352
0.0148022
0.0143035
0.0138603
0.0134949
0.013229
0.0130841
0.0208202
0.0127896
0.0109389
0.0119895
0.0140837
0.016251
0.0181141
0.0195948
0.0207286
0.0215786
0.0222053
0.0226581
0.022975
0.0231847
0.0233089
0.0233643
0.023364
0.023318
0.0232346
0.0231204
0.0229808
0.02282
0.0226413
0.0224472
0.0222391
0.0220181
0.0217843
0.0215373
0.0212761
0.0209994
0.0207055
0.0203923
0.0200579
0.0197
0.0193168
0.0189064
0.0184675
0.0179996
0.0175029
0.0169794
0.0164326
0.0158689
0.0152976
0.0147322
0.0141895
0.0136897
0.0132536
0.0129008
0.0126485
0.0125127
0.0210892
0.0129559
0.011099
0.0121788
0.0143063
0.0164993
0.0183797
0.0198714
0.0210116
0.0218649
0.0224924
0.0229437
0.023257
0.0234608
0.023577
0.0236218
0.0236081
0.0235458
0.0234431
0.0233065
0.0231413
0.0229518
0.0227417
0.0225136
0.0222695
0.0220108
0.021738
0.0214513
0.02115
0.0208332
0.0204995
0.0201471
0.0197742
0.0193788
0.018959
0.0185131
0.0180398
0.0175387
0.0170104
0.0164573
0.0158838
0.0152976
0.0147101
0.0141367
0.0135961
0.0131085
0.0126929
0.0123644
0.0121341
0.0120119
0.0213357
0.0131087
0.0112466
0.0123538
0.0145119
0.0167285
0.0186249
0.0201268
0.0212731
0.0221297
0.0227582
0.0232087
0.0235193
0.0237187
0.0238283
0.0238645
0.0238396
0.0237637
0.0236444
0.0234881
0.0233001
0.0230848
0.0228457
0.0225857
0.0223072
0.0220119
0.0217007
0.0213741
0.0210322
0.0206743
0.0202994
0.0199062
0.0194931
0.0190583
0.0186001
0.018117
0.0176081
0.0170732
0.0165135
0.0159322
0.0153352
0.0147322
0.0141367
0.0135664
0.0130409
0.0125792
0.0121961
0.0119009
0.0116982
0.0115921
0.0215578
0.0132467
0.0113805
0.0125127
0.0146985
0.0169365
0.0188474
0.0203585
0.0215105
0.0223702
0.0229999
0.0234501
0.0237588
0.0239548
0.0240593
0.0240886
0.0240548
0.0239675
0.0238343
0.0236614
0.0234538
0.0232158
0.0229508
0.022662
0.0223516
0.0220218
0.0216738
0.0213085
0.0209265
0.0205275
0.020111
0.0196762
0.0192218
0.0187465
0.0182489
0.0177279
0.0171829
0.0166144
0.0160245
0.0154178
0.0148022
0.0141895
0.0135961
0.0130409
0.0125431
0.0121183
0.0117758
0.0115183
0.0113449
0.0112552
0.0217533
0.0133684
0.0114989
0.0126534
0.0148638
0.0171207
0.0190442
0.0205635
0.0217206
0.0225832
0.0232143
0.0236644
0.0239719
0.0241653
0.024266
0.0242899
0.024249
0.0241528
0.0240084
0.0238219
0.023598
0.0233407
0.0230536
0.0227394
0.0224007
0.0220396
0.0216576
0.0212561
0.0208358
0.0203971
0.0199401
0.0194642
0.0189689
0.0184531
0.0179162
0.0173576
0.0167773
0.0161768
0.0155594
0.0149315
0.0143035
0.0136897
0.0131085
0.0125792
0.0121183
0.0117365
0.0114368
0.0112165
0.0110706
0.010996
0.0219193
0.0134719
0.0115998
0.0127735
0.0150049
0.0172778
0.0192121
0.0207384
0.0218998
0.022765
0.0233974
0.0238477
0.0241544
0.0243461
0.0244439
0.0244637
0.0244175
0.0243143
0.0241613
0.023964
0.0237271
0.0234543
0.0231489
0.0228136
0.0224509
0.0220628
0.021651
0.0212171
0.0207622
0.0202871
0.0197923
0.0192778
0.0187437
0.0181896
0.0176153
0.017021
0.0164078
0.0157783
0.0151374
0.0144939
0.0138603
0.0132536
0.0126929
0.0121961
0.0117758
0.0114368
0.0111769
0.0109894
0.0108671
0.0108052
0.0220523
0.0135549
0.011681
0.0128701
0.0151183
0.017404
0.0193471
0.0208789
0.0220438
0.0229112
0.0235446
0.0239952
0.0243014
0.0244919
0.0245878
0.0246047
0.0245546
0.0244463
0.0242869
0.0240816
0.023835
0.0235504
0.023231
0.0228792
0.0224974
0.0220876
0.0216515
0.0211908
0.0207068
0.0202005
0.0196731
0.0191249
0.0185567
0.0179686
0.0173613
0.0167358
0.0160942
0.0154404
0.0147814
0.0141279
0.0134949
0.0129008
0.0123644
0.0119009
0.0115183
0.0112165
0.0109894
0.0108283
0.0107247
0.010673
0.0221475
0.0136144
0.0117392
0.0129395
0.0151998
0.0174947
0.0194439
0.0209797
0.0221472
0.0230161
0.0236504
0.0241012
0.0244072
0.0245969
0.0246915
0.0247066
0.0246539
0.0245423
0.0243786
0.024168
0.0239147
0.0236221
0.023293
0.0229298
0.0225345
0.0221092
0.0216555
0.0211751
0.0206695
0.0201399
0.0195876
0.0190137
0.0184191
0.0178048
0.0171719
0.0165224
0.0158592
0.0151878
0.0145165
0.013858
0.013229
0.0126485
0.0121341
0.0116982
0.0113449
0.0110706
0.0108671
0.0107247
0.0106348
0.0105908
0.0221988
0.0136465
0.0117707
0.012977
0.0152438
0.0175437
0.0194962
0.0210342
0.0222031
0.0230728
0.0237076
0.0241586
0.0244645
0.0246538
0.0247478
0.0247619
0.0247079
0.0245946
0.0244287
0.0242154
0.0239586
0.0236618
0.0233276
0.0229583
0.0225559
0.0221223
0.0216591
0.0211679
0.0206503
0.0201077
0.0195415
0.018953
0.0183434
0.0177141
0.0170667
0.0164035
0.0157283
0.0150472
0.0143697
0.0137095
0.0130841
0.0125127
0.0120119
0.0115921
0.0112552
0.010996
0.0108052
0.010673
0.0105908
0.0105518
)
;

boundaryField
{
    bottomWall
    {
        type            kqRWallFunction;
        value           nonuniform List<scalar> 
50
(
0.00125017
0.00133577
0.00153491
0.001845
0.00225149
0.00273581
0.0032795
0.00386611
0.00448187
0.00511557
0.00575828
0.00640304
0.00704455
0.00767895
0.00830364
0.00891699
0.00951812
0.0101067
0.0106829
0.0112469
0.0117992
0.0123402
0.0128703
0.01339
0.0138994
0.0143987
0.0148881
0.0153675
0.0158369
0.016296
0.0167447
0.0171824
0.0176088
0.0180234
0.0184255
0.0188145
0.0191894
0.0195495
0.0198938
0.0202211
0.0205304
0.0208202
0.0210892
0.0213357
0.0215578
0.0217533
0.0219193
0.0220523
0.0221475
0.0221988
)
;
    }
    leftWall
    {
        type            kqRWallFunction;
        value           nonuniform List<scalar> 
50
(
0.00125017
0.00133577
0.00153491
0.001845
0.00225149
0.00273581
0.0032795
0.00386611
0.00448187
0.00511557
0.00575828
0.00640304
0.00704455
0.00767895
0.00830364
0.00891699
0.00951812
0.0101067
0.0106829
0.0112469
0.0117992
0.0123402
0.0128703
0.01339
0.0138994
0.0143987
0.0148881
0.0153675
0.0158369
0.016296
0.0167447
0.0171824
0.0176088
0.0180234
0.0184255
0.0188145
0.0191894
0.0195495
0.0198938
0.0202211
0.0205304
0.0208202
0.0210892
0.0213357
0.0215578
0.0217533
0.0219193
0.0220523
0.0221475
0.0221988
)
;
    }
    topSym
    {
        type            symmetryPlane;
    }
    rightSym
    {
        type            symmetryPlane;
    }
    inlet
    {
        type            cyclic;
    }
    outlet
    {
        type            cyclic;
    }
}


// ************************************************************************* //
