/*--------------------------------*- C++ -*----------------------------------*\
| =========                 |                                                 |
| \\      /  F ield         | OpenFOAM: The Open Source CFD Toolbox           |
|  \\    /   O peration     | Version:  v1912                                 |
|   \\  /    A nd           | Website:  www.openfoam.com                      |
|    \\/     M anipulation  |                                                 |
\*---------------------------------------------------------------------------*/
FoamFile
{
    version     2.0;
    format      ascii;
    class       volVectorField;
    location    "2000";
    object      U;
}
// * * * * * * * * * * * * * * * * * * * * * * * * * * * * * * * * * * * * * //

dimensions      [0 1 -1 0 0 0 0];


internalField   nonuniform List<vector> 
2500
(
(0.000969059 -1.80616e-08 -1.80615e-08)
(0.0023798 -1.49291e-08 -5.64274e-08)
(0.0037626 -2.08981e-07 -1.38769e-07)
(0.00516017 -6.99567e-07 -2.54508e-07)
(0.00659213 -1.66455e-06 -4.3081e-07)
(0.00806362 -3.18735e-06 -7.27951e-07)
(0.00957049 -5.08847e-06 -1.22021e-06)
(0.0111034 -6.89364e-06 -1.96322e-06)
(0.0126507 -7.95732e-06 -2.96776e-06)
(0.0142005 -7.66578e-06 -4.20552e-06)
(0.0157419 -5.59706e-06 -5.62952e-06)
(0.0172654 -1.58852e-06 -7.19252e-06)
(0.0187637 4.27794e-06 -8.85784e-06)
(0.0202313 1.17412e-05 -1.06025e-05)
(0.021665 2.04425e-05 -1.24156e-05)
(0.0230628 2.9998e-05 -1.42941e-05)
(0.0244242 4.00517e-05 -1.62391e-05)
(0.0257498 5.0305e-05 -1.8253e-05)
(0.0270405 6.0529e-05 -2.03377e-05)
(0.0282978 7.05632e-05 -2.24935e-05)
(0.0295231 8.03068e-05 -2.47191e-05)
(0.0307179 8.97063e-05 -2.70118e-05)
(0.0318837 9.8743e-05 -2.93673e-05)
(0.0330215 0.00010742 -3.17807e-05)
(0.0341324 0.000115755 -3.42459e-05)
(0.0352171 0.000123765 -3.67567e-05)
(0.0362761 0.000131468 -3.93062e-05)
(0.0373096 0.000138871 -4.18872e-05)
(0.0383177 0.000145968 -4.44924e-05)
(0.0393003 0.00015274 -4.71141e-05)
(0.0402571 0.000159143 -4.97443e-05)
(0.0411876 0.000165117 -5.23746e-05)
(0.0420909 0.000170574 -5.49963e-05)
(0.0429664 0.000175402 -5.76002e-05)
(0.0438128 0.000179461 -6.01767e-05)
(0.0446291 0.000182583 -6.27155e-05)
(0.0454136 0.000184572 -6.52058e-05)
(0.0461649 0.00018521 -6.76364e-05)
(0.0468813 0.000184265 -6.99954e-05)
(0.0475606 0.000181481 -7.22699e-05)
(0.0482007 0.000176598 -7.4447e-05)
(0.0487993 0.000169365 -7.65126e-05)
(0.0493536 0.000159567 -7.8452e-05)
(0.0498606 0.000147025 -8.02491e-05)
(0.0503167 0.000131653 -8.18863e-05)
(0.0507174 0.000113425 -8.33422e-05)
(0.0510574 9.2448e-05 -8.45921e-05)
(0.0513293 6.88511e-05 -8.56032e-05)
(0.0515239 4.28746e-05 -8.6336e-05)
(0.0516287 1.46736e-05 -8.66504e-05)
(0.0023798 -5.64276e-08 -1.49289e-08)
(0.00608444 1.77886e-07 1.77886e-07)
(0.00978665 5.04538e-08 5.34203e-07)
(0.0135265 -5.91963e-07 1.08711e-06)
(0.017313 -2.02778e-06 1.72778e-06)
(0.0211426 -4.35764e-06 2.15937e-06)
(0.0250026 -7.14896e-06 2.02592e-06)
(0.0288743 -9.37875e-06 1.10132e-06)
(0.0327357 -9.70726e-06 -5.8594e-07)
(0.0365642 -6.90077e-06 -2.79844e-06)
(0.040339 -1.46821e-07 -5.21985e-06)
(0.0440427 1.08233e-05 -7.56898e-06)
(0.0476621 2.57748e-05 -9.66028e-06)
(0.0511881 4.41082e-05 -1.14142e-05)
(0.0546158 6.50282e-05 -1.28353e-05)
(0.0579432 8.76947e-05 -1.39802e-05)
(0.0611715 0.000111332 -1.49271e-05)
(0.0643033 0.00013529 -1.57548e-05)
(0.0673424 0.000159072 -1.65301e-05)
(0.0702933 0.000182331 -1.73033e-05)
(0.0731606 0.000204848 -1.81076e-05)
(0.0759484 0.000226509 -1.89617e-05)
(0.0786608 0.000247278 -1.98729e-05)
(0.081301 0.000267164 -2.08404e-05)
(0.083872 0.000286207 -2.18579e-05)
(0.0863758 0.000304453 -2.29159e-05)
(0.0888141 0.000321941 -2.40036e-05)
(0.091188 0.00033869 -2.51093e-05)
(0.093498 0.000354689 -2.62218e-05)
(0.0957443 0.000369891 -2.73303e-05)
(0.0979264 0.000384204 -2.84248e-05)
(0.100044 0.000397487 -2.94961e-05)
(0.102095 0.000409541 -3.05361e-05)
(0.104078 0.000420109 -3.15373e-05)
(0.105991 0.000428871 -3.24935e-05)
(0.107832 0.00043544 -3.33992e-05)
(0.109599 0.000439367 -3.42505e-05)
(0.111287 0.000440149 -3.50449e-05)
(0.112893 0.000437244 -3.57801e-05)
(0.114413 0.000430065 -3.64553e-05)
(0.115843 0.000418009 -3.70718e-05)
(0.117178 0.000400492 -3.76323e-05)
(0.118413 0.00037701 -3.81413e-05)
(0.11954 0.000347149 -3.86034e-05)
(0.120553 0.000310697 -3.90236e-05)
(0.121442 0.000267584 -3.94035e-05)
(0.122195 0.000218043 -3.97425e-05)
(0.122797 0.000162367 -4.00298e-05)
(0.123228 0.0001011 -4.02513e-05)
(0.12346 3.45962e-05 -4.02495e-05)
(0.0037626 -1.38769e-07 -2.08981e-07)
(0.00978665 5.34203e-07 5.0454e-08)
(0.0159096 7.60066e-07 7.60066e-07)
(0.022149 4.5482e-07 1.90122e-06)
(0.0284873 -6.00188e-07 3.18467e-06)
(0.0348936 -2.41826e-06 3.87184e-06)
(0.0413318 -4.30467e-06 3.12796e-06)
(0.0477652 -4.78521e-06 5.07356e-07)
(0.0541571 -2.02599e-06 -3.80359e-06)
(0.0604734 5.56695e-06 -9.14424e-06)
(0.0666838 1.89597e-05 -1.47037e-05)
(0.0727636 3.83779e-05 -1.9787e-05)
(0.0786945 6.33908e-05 -2.39493e-05)
(0.0844644 9.31048e-05 -2.70122e-05)
(0.0900671 0.000126385 -2.90065e-05)
(0.0955011 0.000162048 -3.00906e-05)
(0.100769 0.000199006 -3.04763e-05)
(0.105875 0.000236343 -3.03758e-05)
(0.110827 0.000273355 -2.99709e-05)
(0.115631 0.000309541 -2.94011e-05)
(0.120295 0.000344585 -2.87624e-05)
(0.124826 0.000378317 -2.81135e-05)
(0.12923 0.000410673 -2.74841e-05)
(0.133513 0.000441664 -2.68825e-05)
(0.137678 0.000471339 -2.63037e-05)
(0.14173 0.000499759 -2.57342e-05)
(0.145672 0.000526977 -2.51568e-05)
(0.149504 0.000553014 -2.45532e-05)
(0.153228 0.000577849 -2.39057e-05)
(0.156844 0.000601402 -2.31983e-05)
(0.160351 0.000623529 -2.24178e-05)
(0.16375 0.000644004 -2.15536e-05)
(0.167037 0.000662518 -2.05979e-05)
(0.17021 0.000678664 -1.95462e-05)
(0.173266 0.000691939 -1.83973e-05)
(0.176203 0.000701734 -1.71532e-05)
(0.179015 0.000707341 -1.58207e-05)
(0.181698 0.000707963 -1.44113e-05)
(0.184246 0.00070274 -1.2939e-05)
(0.186655 0.000690741 -1.14213e-05)
(0.188917 0.000671008 -9.8829e-06)
(0.191025 0.00064261 -8.35398e-06)
(0.192971 0.000604738 -6.8698e-06)
(0.194746 0.000556725 -5.4686e-06)
(0.196339 0.000498212 -4.19105e-06)
(0.197735 0.000429076 -3.07395e-06)
(0.198918 0.000349652 -2.1508e-06)
(0.199862 0.000260394 -1.43893e-06)
(0.200537 0.000162145 -9.53524e-07)
(0.2009 5.54786e-05 -6.56687e-07)
(0.00516017 -2.54508e-07 -6.99568e-07)
(0.0135265 1.08711e-06 -5.91963e-07)
(0.022149 1.90122e-06 4.5482e-07)
(0.0309874 2.16325e-06 2.16325e-06)
(0.0399789 1.83785e-06 3.97224e-06)
(0.0490568 1.2362e-06 4.66126e-06)
(0.0581549 1.51719e-06 2.82065e-06)
(0.0672136 4.61449e-06 -2.16503e-06)
(0.0761805 1.26444e-05 -9.72502e-06)
(0.0850117 2.72131e-05 -1.85335e-05)
(0.0936706 4.90951e-05 -2.71314e-05)
(0.102129 7.82334e-05 -3.43546e-05)
(0.110368 0.000113903 -3.95151e-05)
(0.118374 0.000154943 -4.23944e-05)
(0.126142 0.000199986 -4.31283e-05)
(0.133672 0.000247654 -4.20629e-05)
(0.140968 0.00029669 -3.96253e-05)
(0.148038 0.00034604 -3.62349e-05)
(0.154892 0.000394885 -3.22511e-05)
(0.161537 0.000442637 -2.79527e-05)
(0.167985 0.000488914 -2.35377e-05)
(0.174245 0.000533503 -1.91333e-05)
(0.180324 0.000576318 -1.48113e-05)
(0.18623 0.000617357 -1.06026e-05)
(0.191969 0.00065667 -6.51088e-06)
(0.197545 0.000694319 -2.52314e-06)
(0.202962 0.000730357 1.38284e-06)
(0.208222 0.0007648 5.23281e-06)
(0.213327 0.000797608 9.05264e-06)
(0.218276 0.000828669 1.2866e-05)
(0.223069 0.000857785 1.66932e-05)
(0.227704 0.000884652 2.05504e-05)
(0.23218 0.000908856 2.44493e-05)
(0.236493 0.000929856 2.83965e-05)
(0.24064 0.000946976 3.23936e-05)
(0.244616 0.000959403 3.64365e-05)
(0.248416 0.000966188 4.05134e-05)
(0.252034 0.000966259 4.46032e-05)
(0.255465 0.000958459 4.86808e-05)
(0.2587 0.000941531 5.27174e-05)
(0.261733 0.000914184 5.66705e-05)
(0.264554 0.00087516 6.04871e-05)
(0.267153 0.000823353 6.41053e-05)
(0.26952 0.000757851 6.74571e-05)
(0.271641 0.000678144 7.04712e-05)
(0.273497 0.000584044 7.30816e-05)
(0.275068 0.000475964 7.52308e-05)
(0.27632 0.000354497 7.68878e-05)
(0.277215 0.000220749 7.80276e-05)
(0.277696 7.55185e-05 7.85353e-05)
(0.00659213 -4.3081e-07 -1.66455e-06)
(0.017313 1.72778e-06 -2.02778e-06)
(0.0284873 3.18467e-06 -6.00188e-07)
(0.0399789 3.97224e-06 1.83785e-06)
(0.0516399 4.12599e-06 4.12599e-06)
(0.0633529 4.3016e-06 4.54498e-06)
(0.0750246 6.52864e-06 1.25352e-06)
(0.0865804 1.35654e-05 -6.36942e-06)
(0.0979616 2.77329e-05 -1.71815e-05)
(0.109123 5.02563e-05 -2.91013e-05)
(0.12003 8.13149e-05 -4.00656e-05)
(0.130659 0.000120313 -4.85569e-05)
(0.140994 0.000166144 -5.37675e-05)
(0.151028 0.000217419 -5.55388e-05)
(0.160758 0.000272659 -5.41818e-05)
(0.170188 0.00033044 -5.02757e-05)
(0.179326 0.000389484 -4.44951e-05)
(0.188179 0.000448722 -3.749e-05)
(0.19676 0.000507314 -2.98163e-05)
(0.205081 0.000564641 -2.19071e-05)
(0.213151 0.00062029 -1.4073e-05)
(0.220983 0.000674017 -6.51531e-06)
(0.228585 0.000725707 6.51719e-07)
(0.235965 0.000775335 7.37927e-06)
(0.24313 0.000822931 1.36642e-05)
(0.250085 0.000868543 1.95328e-05)
(0.256834 0.000912207 2.50288e-05)
(0.263379 0.00095392 3.02044e-05)
(0.269723 0.000993619 3.51143e-05)
(0.275864 0.00103116 3.98122e-05)
(0.281802 0.00106628 4.43478e-05)
(0.287535 0.00109862 4.87661e-05)
(0.293061 0.00112767 5.3106e-05)
(0.298377 0.00115277 5.73997e-05)
(0.303477 0.0011731 6.1672e-05)
(0.308358 0.00118767 6.59395e-05)
(0.313013 0.00119533 7.02074e-05)
(0.317437 0.00119476 7.44654e-05)
(0.321621 0.00118456 7.86981e-05)
(0.32556 0.00116317 8.28849e-05)
(0.329243 0.00112903 8.69834e-05)
(0.332663 0.00108058 9.09343e-05)
(0.335809 0.00101646 9.46651e-05)
(0.338667 0.00093553 9.80928e-05)
(0.341224 0.000837139 0.000101132)
(0.343459 0.00072103 0.000103707)
(0.345347 0.000587666 0.000105762)
(0.346852 0.000437752 0.000107287)
(0.347926 0.000272606 0.000108296)
(0.348503 9.32451e-05 0.000108664)
(0.00806362 -7.27951e-07 -3.18735e-06)
(0.0211426 2.15937e-06 -4.35764e-06)
(0.0348936 3.87184e-06 -2.41826e-06)
(0.0490568 4.66126e-06 1.2362e-06)
(0.0633529 4.54498e-06 4.3016e-06)
(0.0775863 3.88216e-06 3.88216e-06)
(0.0916378 5.41538e-06 -2.4136e-06)
(0.105435 1.34277e-05 -1.47984e-05)
(0.118932 3.10578e-05 -3.10706e-05)
(0.1321 5.92216e-05 -4.81818e-05)
(0.14492 9.73323e-05 -6.35109e-05)
(0.157383 0.000144103 -7.53174e-05)
(0.169486 0.000197974 -8.27731e-05)
(0.18123 0.000257327 -8.58171e-05)
(0.192619 0.000320612 -8.49227e-05)
(0.203662 0.000386414 -8.08619e-05)
(0.21437 0.000453494 -7.45066e-05)
(0.224752 0.000520814 -6.66916e-05)
(0.234822 0.00058754 -5.81338e-05)
(0.244591 0.000653041 -4.9396e-05)
(0.254071 0.000716869 -4.08853e-05)
(0.263272 0.000778733 -3.28679e-05)
(0.272204 0.000838469 -2.54941e-05)
(0.280874 0.000896003 -1.88248e-05)
(0.289288 0.000951318 -1.28566e-05)
(0.297451 0.00100442 -7.54279e-06)
(0.305368 0.00105531 -2.8096e-06)
(0.313039 0.00110395 1.43117e-06)
(0.320465 0.00115024 5.27349e-06)
(0.327647 0.00119398 8.81107e-06)
(0.334583 0.00123488 1.21334e-05)
(0.34127 0.0012725 1.53231e-05)
(0.347705 0.00130626 1.84542e-05)
(0.353885 0.0013354 2.15906e-05)
(0.359805 0.00135898 2.47849e-05)
(0.365459 0.00137587 2.80766e-05)
(0.370841 0.00138475 3.1488e-05)
(0.375946 0.0013841 3.5018e-05)
(0.380765 0.0013723 3.86563e-05)
(0.385291 0.00134757 4.23804e-05)
(0.389517 0.00130809 4.61378e-05)
(0.393431 0.00125207 4.9849e-05)
(0.397025 0.00117792 5.34145e-05)
(0.400285 0.00108432 5.67187e-05)
(0.403196 0.00097047 5.96432e-05)
(0.405737 0.000836061 6.20841e-05)
(0.407881 0.000681579 6.3973e-05)
(0.409587 0.000507823 6.53104e-05)
(0.410804 0.000316281 6.61432e-05)
(0.411458 0.000108176 6.64963e-05)
(0.00957049 -1.22021e-06 -5.08847e-06)
(0.0250026 2.02592e-06 -7.14896e-06)
(0.0413318 3.12796e-06 -4.30467e-06)
(0.0581549 2.82065e-06 1.51719e-06)
(0.0750246 1.25352e-06 6.52864e-06)
(0.0916378 -2.4136e-06 5.41538e-06)
(0.107845 -5.73883e-06 -5.73883e-06)
(0.123591 -2.60958e-06 -2.63558e-05)
(0.138865 1.20699e-05 -5.20482e-05)
(0.153676 3.98073e-05 -7.79299e-05)
(0.168036 7.96799e-05 -0.000100524)
(0.181963 0.000129829 -0.000117933)
(0.195472 0.000188195 -0.000129481)
(0.20858 0.000252822 -0.00013535)
(0.221301 0.000321967 -0.000136261)
(0.233651 0.00039412 -0.000133207)
(0.245644 0.000468001 -0.000127254)
(0.257291 0.000542535 -0.000119401)
(0.268605 0.00061685 -0.000110507)
(0.279597 0.000690256 -0.000101249)
(0.290277 0.000762232 -9.21273e-05)
(0.300654 0.000832405 -8.34752e-05)
(0.310735 0.000900524 -7.54908e-05)
(0.320527 0.00096643 -6.82634e-05)
(0.330033 0.00103003 -6.18019e-05)
(0.339258 0.00109125 -5.60589e-05)
(0.348202 0.00115004 -5.095e-05)
(0.356867 0.0012063 -4.63691e-05)
(0.365251 0.00125987 -4.21998e-05)
(0.373354 0.00131051 -3.83231e-05)
(0.381172 0.00135787 -3.46237e-05)
(0.388703 0.00140146 -3.09939e-05)
(0.395941 0.00144062 -2.73364e-05)
(0.402883 0.00147451 -2.35675e-05)
(0.409523 0.00150211 -1.96186e-05)
(0.415855 0.00152215 -1.54397e-05)
(0.421873 0.00153319 -1.10044e-05)
(0.42757 0.00153355 -6.31734e-06)
(0.432939 0.00152142 -1.4004e-06)
(0.437972 0.00149485 3.70534e-06)
(0.442662 0.00145181 8.91871e-06)
(0.446998 0.00139032 1.41205e-05)
(0.450972 0.00130859 1.91625e-05)
(0.454571 0.00120515 2.38728e-05)
(0.457779 0.00107909 2.80761e-05)
(0.460575 0.000930029 3.16147e-05)
(0.46293 0.000758476 3.43817e-05)
(0.464804 0.000565306 3.63614e-05)
(0.466138 0.000352161 3.76066e-05)
(0.466855 0.000120448 3.83076e-05)
(0.0111034 -1.96322e-06 -6.89364e-06)
(0.0288743 1.10132e-06 -9.37875e-06)
(0.0477652 5.07356e-07 -4.78521e-06)
(0.0672136 -2.16503e-06 4.61449e-06)
(0.0865804 -6.36942e-06 1.35654e-05)
(0.105435 -1.47984e-05 1.34277e-05)
(0.123591 -2.63558e-05 -2.60958e-06)
(0.141021 -3.34539e-05 -3.34539e-05)
(0.157768 -2.85052e-05 -7.16214e-05)
(0.173892 -8.44225e-06 -0.000109233)
(0.189453 2.6375e-05 -0.000141233)
(0.204504 7.40735e-05 -0.000165378)
(0.219087 0.000132292 -0.00018128)
(0.23324 0.000198687 -0.000189608)
(0.24699 0.000271163 -0.000191546)
(0.26036 0.000347932 -0.000188467)
(0.27337 0.000427503 -0.00018173)
(0.286034 0.000508637 -0.000172553)
(0.298365 0.00059032 -0.000161959)
(0.310371 0.000671731 -0.000150751)
(0.322062 0.00075222 -0.000139523)
(0.333442 0.000831287 -0.00012868)
(0.344516 0.000908555 -0.000118471)
(0.355287 0.000983745 -0.000109021)
(0.365757 0.00105665 -0.000100362)
(0.375924 0.0011271 -9.24605e-05)
(0.385788 0.00119495 -8.52341e-05)
(0.395348 0.00126002 -7.85738e-05)
(0.404599 0.00132208 -7.23539e-05)
(0.413538 0.00138083 -6.64421e-05)
(0.42216 0.00143584 -6.07072e-05)
(0.43046 0.00148657 -5.5024e-05)
(0.438433 0.0015323 -4.92781e-05)
(0.446071 0.00157211 -4.33698e-05)
(0.453369 0.00160489 -3.72178e-05)
(0.46032 0.0016293 -3.07634e-05)
(0.466917 0.00164376 -2.39771e-05)
(0.473153 0.00164649 -1.68684e-05)
(0.479019 0.00163551 -9.47384e-06)
(0.48451 0.00160873 -1.85481e-06)
(0.489617 0.00156397 5.87623e-06)
(0.494331 0.00149907 1.3556e-05)
(0.498643 0.00141209 2.09821e-05)
(0.502541 0.00130144 2.79198e-05)
(0.506011 0.00116609 3.41292e-05)
(0.50903 0.00100563 3.93911e-05)
(0.511571 0.000820574 4.35534e-05)
(0.513589 0.000611863 4.65778e-05)
(0.515025 0.000381283 4.85178e-05)
(0.515796 0.000130419 4.96506e-05)
(0.0126507 -2.96776e-06 -7.95732e-06)
(0.0327357 -5.8594e-07 -9.70726e-06)
(0.0541571 -3.80359e-06 -2.02599e-06)
(0.0761805 -9.72502e-06 1.26444e-05)
(0.0979616 -1.71815e-05 2.77329e-05)
(0.118932 -3.10706e-05 3.10578e-05)
(0.138865 -5.20482e-05 1.20699e-05)
(0.157768 -7.16214e-05 -2.85052e-05)
(0.175744 -8.02891e-05 -8.02891e-05)
(0.192922 -7.33137e-05 -0.000131837)
(0.209414 -4.97286e-05 -0.000175658)
(0.225317 -1.05625e-05 -0.000208514)
(0.240705 4.21126e-05 -0.000230036)
(0.255636 0.000105832 -0.000241377)
(0.270157 0.00017817 -0.000244328)
(0.284301 0.000256958 -0.000240813)
(0.298095 0.00034034 -0.000232628)
(0.311555 0.000426771 -0.000221327)
(0.324698 0.000514978 -0.000208176)
(0.33753 0.000603921 -0.000194156)
(0.350058 0.000692757 -0.000179981)
(0.362285 0.000780812 -0.000166144)
(0.374212 0.00086755 -0.00015295)
(0.385836 0.000952545 -0.000140559)
(0.397156 0.00103545 -0.000129024)
(0.408167 0.00111597 -0.000118319)
(0.418865 0.00119384 -0.000108365)
(0.429242 0.00126878 -9.90479e-05)
(0.439292 0.00134046 -9.02325e-05)
(0.449008 0.0014085 -8.17743e-05)
(0.458381 0.0014724 -7.35268e-05)
(0.467403 0.00153152 -6.53481e-05)
(0.476067 0.00158508 -5.71062e-05)
(0.484364 0.00163209 -4.86844e-05)
(0.492285 0.00167136 -3.9986e-05)
(0.499822 0.00170145 -3.09409e-05)
(0.506967 0.0017207 -2.15133e-05)
(0.513712 0.00172722 -1.17137e-05)
(0.520049 0.00171891 -1.59111e-06)
(0.52597 0.00169355 8.77489e-06)
(0.531469 0.00164882 1.92419e-05)
(0.536537 0.00158243 2.96026e-05)
(0.541165 0.00149233 3.95989e-05)
(0.545341 0.0013768 4.89304e-05)
(0.549053 0.00123474 5.72893e-05)
(0.552278 0.00106569 6.43918e-05)
(0.554988 0.000870175 7.00393e-05)
(0.557138 0.000649211 7.41715e-05)
(0.558667 0.000404713 7.68473e-05)
(0.559488 0.00013845 7.83683e-05)
(0.0142005 -4.20552e-06 -7.66578e-06)
(0.0365642 -2.79844e-06 -6.90077e-06)
(0.0604734 -9.14424e-06 5.56695e-06)
(0.0850117 -1.85335e-05 2.72131e-05)
(0.109123 -2.91013e-05 5.02563e-05)
(0.1321 -4.81818e-05 5.92216e-05)
(0.153676 -7.79299e-05 3.98073e-05)
(0.173892 -0.000109233 -8.44225e-06)
(0.192922 -0.000131837 -7.33137e-05)
(0.210963 -0.00014015 -0.00014015)
(0.228191 -0.000131763 -0.000198533)
(0.244746 -0.000106162 -0.000243399)
(0.260736 -6.43487e-05 -0.000273686)
(0.276245 -8.32324e-06 -0.000290638)
(0.291335 5.94877e-05 -0.000296524)
(0.306055 0.000136642 -0.000293855)
(0.320437 0.000220901 -0.000284985)
(0.334508 0.00031032 -0.000271933)
(0.348283 0.000403259 -0.000256328)
(0.361772 0.000498364 -0.000239422)
(0.37498 0.000594527 -0.000222131)
(0.387909 0.000690845 -0.000205084)
(0.400556 0.000786588 -0.000188678)
(0.412917 0.000881155 -0.00017313)
(0.424983 0.000974046 -0.000158523)
(0.436747 0.00106482 -0.000144841)
(0.448198 0.00115309 -0.000132005)
(0.459326 0.00123843 -0.000119889)
(0.470118 0.00132043 -0.000108346)
(0.480562 0.00139857 -9.72145e-05)
(0.490647 0.00147227 -8.63288e-05)
(0.500359 0.00154081 -7.55288e-05)
(0.509688 0.00160329 -6.46637e-05)
(0.51862 0.00165866 -5.35989e-05)
(0.527145 0.00170562 -4.22223e-05)
(0.535253 0.00174267 -3.04511e-05)
(0.542932 0.00176803 -1.82424e-05)
(0.550175 0.00177972 -5.60613e-06)
(0.556971 0.00177552 7.396e-06)
(0.563314 0.00175311 2.06652e-05)
(0.569195 0.00171006 3.40279e-05)
(0.574606 0.00164396 4.72305e-05)
(0.57954 0.00155265 5.99552e-05)
(0.583985 0.00143431 7.18305e-05)
(0.587929 0.00128778 8.24751e-05)
(0.591352 0.00111257 9.15345e-05)
(0.594224 0.00090921 9.87599e-05)
(0.5965 0.000678786 0.000104067)
(0.598117 0.000423345 0.000107522)
(0.598984 0.000144847 0.000109435)
(0.0157419 -5.62952e-06 -5.59706e-06)
(0.040339 -5.21985e-06 -1.46821e-07)
(0.0666838 -1.47037e-05 1.89597e-05)
(0.0936706 -2.71314e-05 4.90951e-05)
(0.12003 -4.00656e-05 8.13149e-05)
(0.14492 -6.35109e-05 9.73323e-05)
(0.168036 -0.000100524 7.96799e-05)
(0.189453 -0.000141233 2.6375e-05)
(0.209414 -0.000175658 -4.97286e-05)
(0.228191 -0.000198533 -0.000131763)
(0.24602 -0.000206548 -0.000206548)
(0.263088 -0.000197498 -0.000266661)
(0.279539 -0.000170754 -0.000309564)
(0.29548 -0.000127186 -0.000335916)
(0.310993 -6.86634e-05 -0.000348043)
(0.326138 2.46804e-06 -0.000348866)
(0.34096 8.37672e-05 -0.000341281)
(0.355489 0.000172934 -0.000327844)
(0.369748 0.000267928 -0.000310659)
(0.383749 0.000367004 -0.000291365)
(0.397498 0.000468706 -0.000271178)
(0.410997 0.000571838 -0.00025095)
(0.424241 0.000675419 -0.000231239)
(0.437224 0.000778641 -0.000212366)
(0.449935 0.000880824 -0.000194481)
(0.462362 0.000981379 -0.000177601)
(0.474488 0.00107976 -0.000161657)
(0.486299 0.00117544 -0.00014652)
(0.497778 0.00126786 -0.000132027)
(0.508906 0.00135642 -0.000117996)
(0.519666 0.00144039 -0.000104241)
(0.530041 0.00151896 -9.05792e-05)
(0.540014 0.00159113 -7.68392e-05)
(0.549568 0.00165574 -6.28677e-05)
(0.558688 0.00171139 -4.85369e-05)
(0.56736 0.00175647 -3.3753e-05)
(0.575571 0.00178912 -1.84667e-05)
(0.58331 0.00180724 -2.68809e-06)
(0.590565 0.0018085 1.35047e-05)
(0.597329 0.00179047 2.99911e-05)
(0.603592 0.00175061 4.65631e-05)
(0.609347 0.00168642 6.29159e-05)
(0.614586 0.00159563 7.86665e-05)
(0.619299 0.00147634 9.33653e-05)
(0.623474 0.00132734 0.00010655)
(0.627092 0.0011481 0.000117788)
(0.630123 0.00093916 0.000126773)
(0.632523 0.000701691 0.000133394)
(0.634226 0.000437864 0.000137722)
(0.635139 0.000149844 0.000140079)
(0.0172654 -7.19252e-06 -1.58852e-06)
(0.0440427 -7.56898e-06 1.08233e-05)
(0.0727636 -1.9787e-05 3.83779e-05)
(0.102129 -3.43546e-05 7.82334e-05)
(0.130659 -4.85569e-05 0.000120313)
(0.157383 -7.53174e-05 0.000144103)
(0.181963 -0.000117933 0.000129829)
(0.204504 -0.000165378 7.40735e-05)
(0.225317 -0.000208514 -1.05625e-05)
(0.244746 -0.000243399 -0.000106162)
(0.263088 -0.000266661 -0.000197498)
(0.280579 -0.000274805 -0.000274805)
(0.297395 -0.000265484 -0.000333564)
(0.31367 -0.000238009 -0.000373163)
(0.329503 -0.000193132 -0.000395381)
(0.344967 -0.000132581 -0.000403148)
(0.360116 -5.86134e-05 -0.000399699)
(0.374989 2.63475e-05 -0.00038808)
(0.389614 0.000119956 -0.000370912)
(0.404008 0.000220086 -0.000350307)
(0.41818 0.000324887 -0.000327881)
(0.432132 0.0004328 -0.000304806)
(0.445862 0.000542524 -0.000281881)
(0.459362 0.000652987 -0.000259606)
(0.472618 0.00076329 -0.000238251)
(0.485616 0.000872658 -0.000217911)
(0.498338 0.000980397 -0.000198556)
(0.510762 0.00108584 -0.000180074)
(0.522868 0.00118831 -0.000162297)
(0.534631 0.00128708 -0.000145029)
(0.546029 0.00138134 -0.00012806)
(0.557038 0.00147014 -0.000111184)
(0.567635 0.00155237 -9.42069e-05)
(0.577798 0.00162676 -7.69539e-05)
(0.587507 0.00169181 -5.92813e-05)
(0.596742 0.00174577 -4.10844e-05)
(0.605487 0.00178668 -2.23097e-05)
(0.613726 0.00181231 -2.96971e-06)
(0.621447 0.00182023 1.68383e-05)
(0.628639 0.00180788 3.69659e-05)
(0.635291 0.00177261 5.71655e-05)
(0.641397 0.00171182 7.70764e-05)
(0.646947 0.00162315 9.62429e-05)
(0.651933 0.00150461 0.00011413)
(0.656343 0.00135494 0.000130185)
(0.660158 0.00117358 0.00014389)
(0.66335 0.000961096 0.000154874)
(0.665875 0.000718723 0.000162991)
(0.667664 0.000448767 0.000168319)
(0.668622 0.000153612 0.000171193)
(0.0187637 -8.85784e-06 4.27794e-06)
(0.0476621 -9.66028e-06 2.57748e-05)
(0.0786945 -2.39493e-05 6.33908e-05)
(0.110368 -3.95151e-05 0.000113903)
(0.140994 -5.37675e-05 0.000166144)
(0.169486 -8.27731e-05 0.000197974)
(0.195472 -0.000129481 0.000188195)
(0.219087 -0.00018128 0.000132292)
(0.240705 -0.000230036 4.21126e-05)
(0.260736 -0.000273686 -6.43487e-05)
(0.279539 -0.000309564 -0.000170754)
(0.297395 -0.000333564 -0.000265484)
(0.314517 -0.000341977 -0.000341977)
(0.331062 -0.000332524 -0.000397894)
(0.347145 -0.000304506 -0.000433874)
(0.362853 -0.000258562 -0.000452317)
(0.378251 -0.000196289 -0.00045642)
(0.393384 -0.000119848 -0.000449513)
(0.408287 -3.16271e-05 -0.000434656)
(0.422982 6.60019e-05 -0.000414452)
(0.437481 0.000170842 -0.000390983)
(0.45179 0.000280947 -0.000365826)
(0.465907 0.000394649 -0.000340113)
(0.479827 0.000510541 -0.000314599)
(0.493536 0.000627441 -0.000289745)
(0.507019 0.000744341 -0.000265777)
(0.520254 0.000860357 -0.000242753)
(0.533219 0.000974668 -0.000220608)
(0.545888 0.00108647 -0.000199195)
(0.558232 0.00119492 -0.000178315)
(0.570224 0.00129909 -0.000157747)
(0.581832 0.00139794 -0.000137262)
(0.593029 0.00149026 -0.000116641)
(0.603785 0.00157464 -9.56882e-05)
(0.614074 0.00164947 -7.42408e-05)
(0.623871 0.0017129 -5.21831e-05)
(0.633154 0.00176281 -2.94582e-05)
(0.641901 0.00179686 -6.08447e-06)
(0.650098 0.00181248 1.78215e-05)
(0.657728 0.00180697 4.20728e-05)
(0.664782 0.00177758 6.63779e-05)
(0.671249 0.00172158 9.03123e-05)
(0.677121 0.00163651 0.00011334)
(0.682389 0.00152031 0.000134832)
(0.687041 0.00137164 0.000154135)
(0.69106 0.00118993 0.000170636)
(0.694418 0.000975754 0.000183894)
(0.69707 0.000730428 0.000193721)
(0.698949 0.000456395 0.000200194)
(0.699954 0.000156267 0.000203664)
(0.0202313 -1.06026e-05 1.17412e-05)
(0.0511881 -1.14142e-05 4.41082e-05)
(0.0844644 -2.70122e-05 9.31048e-05)
(0.118374 -4.23944e-05 0.000154943)
(0.151028 -5.55388e-05 0.000217419)
(0.18123 -8.58171e-05 0.000257327)
(0.20858 -0.00013535 0.000252822)
(0.23324 -0.000189608 0.000198687)
(0.255636 -0.000241377 0.000105832)
(0.276245 -0.000290638 -8.32324e-06)
(0.29548 -0.000335916 -0.000127186)
(0.31367 -0.000373163 -0.000238009)
(0.331062 -0.000397894 -0.000332524)
(0.347835 -0.000406562 -0.000406562)
(0.364124 -0.000397017 -0.000459211)
(0.380027 -0.000368551 -0.000491826)
(0.395619 -0.0003217 -0.000507087)
(0.410954 -0.000257934 -0.000508248)
(0.42607 -0.000179314 -0.0004986)
(0.440996 -8.81793e-05 -0.000481145)
(0.455748 1.30905e-05 -0.000458427)
(0.470336 0.000122243 -0.000432478)
(0.48476 0.000237247 -0.000404833)
(0.499018 0.000356323 -0.00037659)
(0.513097 0.00047795 -0.000348471)
(0.526983 0.000600821 -0.000320905)
(0.540654 0.000723803 -0.000294091)
(0.554086 0.000845879 -0.000268055)
(0.567251 0.000966083 -0.000242705)
(0.580118 0.00108344 -0.000217869)
(0.592652 0.00119693 -0.000193325)
(0.604819 0.00130539 -0.000168834)
(0.616584 0.00140752 -0.000144157)
(0.627912 0.00150183 -0.000119075)
(0.638769 0.00158657 -9.34078e-05)
(0.649122 0.00165977 -6.70256e-05)
(0.658943 0.00171919 -3.98684e-05)
(0.668206 0.00176236 -1.19622e-05)
(0.676889 0.00178655 1.65551e-05)
(0.684972 0.00178891 4.54503e-05)
(0.692441 0.00176656 7.43796e-05)
(0.699284 0.00171664 0.000102847)
(0.705492 0.00163657 0.000130225)
(0.711054 0.00152419 0.000155781)
(0.71596 0.00137811 0.000178751)
(0.720193 0.00119772 0.000198416)
(0.723724 0.000983607 0.000214253)
(0.726509 0.00073716 0.000226027)
(0.72848 0.000460968 0.000233811)
(0.729533 0.000157887 0.000237963)
(0.021665 -1.24156e-05 2.04425e-05)
(0.0546158 -1.28353e-05 6.50282e-05)
(0.0900671 -2.90065e-05 0.000126385)
(0.126142 -4.31283e-05 0.000199986)
(0.160758 -5.41818e-05 0.000272659)
(0.192619 -8.49227e-05 0.000320612)
(0.221301 -0.000136261 0.000321967)
(0.24699 -0.000191546 0.000271163)
(0.270157 -0.000244328 0.00017817)
(0.291335 -0.000296524 5.94877e-05)
(0.310993 -0.000348043 -6.86634e-05)
(0.329503 -0.000395381 -0.000193132)
(0.347145 -0.000433874 -0.000304506)
(0.364124 -0.000459211 -0.000397017)
(0.380591 -0.000468085 -0.000468085)
(0.396658 -0.000458457 -0.000517651)
(0.412408 -0.000429601 -0.000547423)
(0.427903 -0.000381959 -0.000560148)
(0.443187 -0.00031688 -0.000559015)
(0.458293 -0.000236322 -0.000547209)
(0.473242 -0.000142566 -0.000527634)
(0.488048 -3.79856e-05 -0.000502754)
(0.502716 7.51246e-05 -0.000474548)
(0.517244 0.00019465 -0.000444511)
(0.531623 0.000318705 -0.00041371)
(0.54584 0.000445641 -0.000382845)
(0.559875 0.000574014 -0.000352322)
(0.573705 0.000702546 -0.000322317)
(0.587299 0.000830059 -0.000292837)
(0.600625 0.000955418 -0.000263766)
(0.613647 0.00107746 -0.000234915)
(0.626326 0.00119493 -0.000206046)
(0.638621 0.00130643 -0.000176914)
(0.650492 0.00141036 -0.000147282)
(0.661896 0.00150491 -0.000116951)
(0.672795 0.00158797 -8.57789e-05)
(0.683152 0.0016572 -5.37009e-05)
(0.692934 0.00170997 -2.0751e-05)
(0.702111 0.00174342 1.2909e-05)
(0.71066 0.00175453 4.69943e-05)
(0.71856 0.00174026 8.10993e-05)
(0.725796 0.0016976 0.000114646)
(0.732356 0.00162385 0.000146906)
(0.738229 0.00151674 0.000177027)
(0.743402 0.00137476 0.000204124)
(0.74786 0.0011973 0.000227358)
(0.751574 0.00098493 0.000246114)
(0.754499 0.000739122 0.000260101)
(0.756567 0.000462613 0.000269378)
(0.757672 0.000158513 0.000274309)
(0.0230628 -1.42941e-05 2.9998e-05)
(0.0579432 -1.39802e-05 8.76947e-05)
(0.0955011 -3.00906e-05 0.000162048)
(0.133672 -4.20629e-05 0.000247654)
(0.170188 -5.02757e-05 0.00033044)
(0.203662 -8.08619e-05 0.000386414)
(0.233651 -0.000133207 0.00039412)
(0.26036 -0.000188467 0.000347932)
(0.284301 -0.000240813 0.000256958)
(0.306055 -0.000293855 0.000136642)
(0.326138 -0.000348866 2.46804e-06)
(0.344967 -0.000403148 -0.000132581)
(0.362853 -0.000452317 -0.000258562)
(0.380027 -0.000491826 -0.000368551)
(0.396658 -0.000517651 -0.000458457)
(0.41287 -0.000526685 -0.000526685)
(0.428755 -0.000516975 -0.000573645)
(0.444382 -0.000487771 -0.000601173)
(0.459802 -0.000439424 -0.00061196)
(0.475052 -0.00037317 -0.000609065)
(0.490158 -0.000290863 -0.000595537)
(0.505136 -0.000194724 -0.000574161)
(0.519997 -8.71114e-05 -0.000547319)
(0.53474 2.96439e-05 -0.000516931)
(0.549361 0.000153349 -0.000484456)
(0.563849 0.000282008 -0.000450939)
(0.578185 0.000413834 -0.000417063)
(0.592348 0.000547233 -0.000383218)
(0.606309 0.000680757 -0.000349564)
(0.620034 0.000813045 -0.000316092)
(0.633487 0.00094276 -0.000282673)
(0.646627 0.00106851 -0.000249105)
(0.659407 0.0011888 -0.000215149)
(0.671784 0.00130194 -0.000180564)
(0.683708 0.00140602 -0.000145138)
(0.695135 0.00149886 -0.000108717)
(0.706019 0.00157799 -7.12315e-05)
(0.716318 0.00164066 -3.2724e-05)
(0.725997 0.00168388 6.62086e-06)
(0.735022 0.00170446 4.64594e-05)
(0.743368 0.00169917 8.63171e-05)
(0.751014 0.00166487 0.000125523)
(0.757944 0.00159867 0.000163234)
(0.764145 0.00149818 0.000198464)
(0.769602 0.00136179 0.000230189)
(0.774298 0.00118883 0.000257438)
(0.778207 0.00097985 0.000279488)
(0.781282 0.000736408 0.000295982)
(0.783453 0.000461389 0.000306959)
(0.784613 0.000158167 0.000312775)
(0.0244242 -1.62391e-05 4.00517e-05)
(0.0611715 -1.49271e-05 0.000111332)
(0.100769 -3.04763e-05 0.000199006)
(0.140968 -3.96253e-05 0.00029669)
(0.179326 -4.44951e-05 0.000389484)
(0.21437 -7.45066e-05 0.000453494)
(0.245644 -0.000127254 0.000468001)
(0.27337 -0.00018173 0.000427503)
(0.298095 -0.000232628 0.00034034)
(0.320437 -0.000284985 0.000220901)
(0.34096 -0.000341281 8.37672e-05)
(0.360116 -0.000399699 -5.86134e-05)
(0.378251 -0.00045642 -0.000196289)
(0.395619 -0.000507087 -0.0003217)
(0.412408 -0.000547423 -0.000429601)
(0.428755 -0.000573645 -0.000516975)
(0.444761 -0.000582807 -0.000582807)
(0.460503 -0.000573013 -0.000627731)
(0.476037 -0.000543489 -0.000653581)
(0.491405 -0.000494499 -0.000662928)