/*--------------------------------*- C++ -*----------------------------------*\
| =========                 |                                                 |
| \\      /  F ield         | OpenFOAM: The Open Source CFD Toolbox           |
|  \\    /   O peration     | Version:  v1912                                 |
|   \\  /    A nd           | Website:  www.openfoam.com                      |
|    \\/     M anipulation  |                                                 |
\*---------------------------------------------------------------------------*/
FoamFile
{
    version     2.0;
    format      ascii;
    class       surfaceScalarField;
    location    "6000";
    object      phi;
}
// * * * * * * * * * * * * * * * * * * * * * * * * * * * * * * * * * * * * * //

dimensions      [0 3 -1 0 0 0 0];
oriented        oriented;


internalField   nonuniform List<scalar> 
4900
(
-8.44658e-16
-8.55227e-16
-6.86985e-11
6.86976e-11
-2.69348e-10
2.00649e-10
-7.08186e-10
4.38838e-10
-1.47498e-09
7.66792e-10
-2.54294e-09
1.06796e-09
-3.70845e-09
1.16551e-09
-4.61768e-09
9.09226e-10
-4.87333e-09
2.55656e-10
-4.14944e-09
-7.23895e-10
-2.26212e-09
-1.88732e-09
8.14211e-10
-3.07633e-09
4.9722e-09
-4.15799e-09
1.00178e-08
-5.04559e-09
1.57184e-08
-5.70066e-09
2.18424e-08
-6.12397e-09
2.81845e-08
-6.34206e-09
3.45791e-08
-6.39465e-09
4.0904e-08
-6.32484e-09
4.70766e-08
-6.17261e-09
5.30481e-08
-5.97154e-09
5.87954e-08
-5.74732e-09
6.43133e-08
-5.51788e-09
6.96075e-08
-5.29419e-09
7.46888e-08
-5.08132e-09
7.95684e-08
-4.87954e-09
8.42537e-08
-4.68532e-09
8.87458e-08
-4.4921e-09
9.30367e-08
-4.29092e-09
9.71075e-08
-4.0708e-09
1.00927e-07
-3.81906e-09
1.04448e-07
-3.52152e-09
1.07611e-07
-3.16272e-09
1.10337e-07
-2.72617e-09
1.12532e-07
-2.19468e-09
1.14083e-07
-1.55103e-09
1.14862e-07
-7.79769e-10
1.14732e-07
1.30653e-10
1.1354e-07
1.19167e-09
1.11128e-07
2.41211e-09
1.07339e-07
3.78932e-09
1.02028e-07
5.31119e-09
9.5076e-08
6.95149e-09
8.64023e-08
8.67376e-09
7.59774e-08
1.04249e-08
6.38246e-08
1.21528e-08
5.00293e-08
1.37953e-08
3.47033e-08
1.5326e-08
1.79961e-08
1.67072e-08
1.79961e-08
6.86976e-11
-6.86985e-11
6.86976e-11
6.86976e-11
-1.65671e-10
4.35018e-10
-8.27368e-10
1.10054e-09
-2.05857e-09
1.99799e-09
-3.75409e-09
2.76349e-09
-5.43241e-09
2.84382e-09
-6.3051e-09
1.78192e-09
-5.51349e-09
-5.35958e-10
-2.37371e-09
-3.86368e-09
3.47756e-09
-7.73858e-09
1.20547e-08
-1.16535e-08
2.30824e-08
-1.51857e-08
3.60978e-08
-1.8061e-08
5.05573e-08
-2.01601e-08
6.59227e-08
-2.14894e-08
8.17191e-08
-2.21384e-08
9.75636e-08
-2.22392e-08
1.13174e-07
-2.19348e-08
1.28359e-07
-2.1358e-08
1.43008e-07
-2.06205e-08
1.57069e-07
-1.98079e-08
1.70531e-07
-1.898e-08
1.8341e-07
-1.81735e-08
1.95734e-07
-1.74054e-08
2.07531e-07
-1.66764e-08
2.1882e-07
-1.59743e-08
2.29604e-07
-1.52767e-08
2.39866e-07
-1.45529e-08
2.49561e-07
-1.37651e-08
2.58611e-07
-1.28697e-08
2.66908e-07
-1.18177e-08
2.74301e-07
-1.05558e-08
2.80601e-07
-9.02681e-09
2.85578e-07
-7.17121e-09
2.88956e-07
-4.92926e-09
2.90423e-07
-2.24704e-09
2.89638e-07
9.16597e-10
2.86228e-07
4.60143e-09
2.79803e-07
8.83719e-09
2.69975e-07
1.36169e-08
2.56388e-07
1.88983e-08
2.38745e-07
2.45941e-08
2.16843e-07
3.05762e-08
1.906e-07
3.66676e-08
1.60072e-07
4.26813e-08
1.25452e-07
4.84151e-08
8.7019e-08
5.37589e-08
4.5125e-08
5.86011e-08
6.31211e-08
2.00649e-10
-2.69348e-10
4.35018e-10
-1.65671e-10
4.35018e-10
4.35018e-10
-1.04763e-11
1.54603e-09
-1.00269e-09
2.99021e-09
-2.31118e-09
4.07198e-09
-3.1741e-09
3.70674e-09
-2.41538e-09
1.02319e-09
1.18096e-09
-4.1323e-09
8.52451e-09
-1.12072e-08
2.00426e-08
-1.92567e-08
3.56685e-08
-2.72793e-08
5.49377e-08
-3.44549e-08
7.71351e-08
-4.02584e-08
1.01442e-07
-4.44668e-08
1.27053e-07
-4.71012e-08
1.5326e-07
-4.83449e-08
1.79486e-07
-4.84654e-08
2.05303e-07
-4.77519e-08
2.3042e-07
-4.64744e-08
2.5466e-07
-4.48608e-08
2.77939e-07
-4.30873e-08
3.00237e-07
-4.1278e-08
3.21573e-07
-3.95094e-08
3.41985e-07
-3.78173e-08
3.61512e-07
-3.62036e-08
3.80181e-07
-3.46431e-08
3.97993e-07
-3.30883e-08
4.14913e-07
-3.14732e-08
4.30865e-07
-2.97168e-08
4.4572e-07
-2.77246e-08
4.59292e-07
-2.53904e-08
4.71334e-07
-2.25975e-08
4.81528e-07
-1.92208e-08
4.89487e-07
-1.51299e-08
4.94751e-07
-1.01932e-08
4.96795e-07
-4.29092e-09
4.95041e-07
2.66991e-09
4.88866e-07
1.07771e-08
4.77607e-07
2.00953e-08
4.60611e-07
3.0613e-08
4.37271e-07
4.22388e-08
4.07078e-07
5.47865e-08
3.6968e-07
6.79742e-08
3.24926e-07
8.14221e-08
2.72894e-07
9.47129e-08
2.13894e-07
1.07416e-07
1.48387e-07
1.19266e-07
7.6952e-08
1.30036e-07
1.40073e-07
4.38838e-10
-7.08186e-10
1.10054e-09
-8.27368e-10
1.54603e-09
-1.04763e-11
1.54603e-09
1.54603e-09
1.19697e-09
3.33927e-09
1.05017e-09
4.21877e-09
2.2539e-09
2.50302e-09
6.34198e-09
-3.0649e-09
1.4723e-08
-1.25133e-08
2.82991e-08
-2.47833e-08
4.73475e-08
-3.8305e-08
7.15802e-08
-5.1512e-08
1.00292e-07
-6.31669e-08
1.32536e-07
-7.25019e-08
1.67279e-07
-7.921e-08
2.0353e-07
-8.33522e-08
2.40418e-07
-8.52328e-08
2.77235e-07
-8.52825e-08
3.13448e-07
-8.39655e-08
3.4869e-07
-8.17162e-08
3.82733e-07
-7.89035e-08
4.15461e-07
-7.5815e-08
4.46838e-07
-7.2655e-08
4.7688e-07
-6.95514e-08
5.05627e-07
-6.65647e-08
5.33123e-07
-6.36991e-08
5.59392e-07
-6.09122e-08
5.84427e-07
-5.81234e-08
6.08173e-07
-5.52196e-08
6.30517e-07
-5.20604e-08
6.51273e-07
-4.84807e-08
6.70177e-07
-4.42942e-08
6.86875e-07
-3.92953e-08
7.00917e-07
-3.32628e-08
7.11751e-07
-2.59646e-08
7.18725e-07
-1.71668e-08
7.21087e-07
-6.65359e-09
7.18013e-07
5.74456e-09
7.08605e-07
2.01847e-08
6.9192e-07
3.6781e-08
6.67014e-07
5.55188e-08
6.33013e-07
7.62397e-08
5.89179e-07
9.86205e-08
5.34991e-07
1.22162e-07
4.70213e-07
1.462e-07
3.9494e-07
1.69986e-07
3.09586e-07
1.92769e-07
2.14801e-07
2.14051e-07
1.11398e-07
2.33439e-07
2.51471e-07
7.66792e-10
-1.47498e-09
1.99799e-09
-2.05857e-09
2.99021e-09
-1.00269e-09
3.33927e-09
1.19697e-09
3.33927e-09
3.33927e-09
4.17869e-09
3.37935e-09
7.76833e-09
-1.08662e-09
1.61136e-08
-1.14101e-08
3.06227e-08
-2.70225e-08
5.18671e-08
-4.60277e-08
7.96915e-08
-6.61295e-08
1.13422e-07
-8.52425e-08
1.52065e-07
-1.0181e-07
1.94478e-07
-1.14915e-07
2.395e-07
-1.24232e-07
2.8605e-07
-1.29903e-07
3.33189e-07
-1.32371e-07
3.80147e-07
-1.32241e-07
4.2634e-07
-1.30158e-07
4.71349e-07
-1.26726e-07
5.14908e-07
-1.22462e-07
5.56868e-07
-1.17775e-07
5.97171e-07
-1.12958e-07
6.35816e-07
-1.08196e-07
6.72831e-07
-1.0358e-07
7.08249e-07
-9.91172e-08
7.42084e-07
-9.47471e-08
7.7431e-07
-9.03496e-08
8.04845e-07
-8.57548e-08
8.33534e-07
-8.07488e-08
8.60132e-07
-7.50791e-08
8.84295e-07
-6.84578e-08
9.05566e-07
-6.05658e-08
9.23362e-07
-5.10584e-08
9.3697e-07
-3.95729e-08
9.45545e-07
-2.57419e-08
9.48115e-07
-9.2236e-09
9.43604e-07
1.02552e-08
9.30848e-07
3.29412e-08
9.08616e-07
5.90126e-08
8.7568e-07
8.84553e-08
8.30892e-07
1.21028e-07
7.73279e-07
1.56233e-07
7.02146e-07
1.93295e-07
6.17162e-07
2.31184e-07
5.18425e-07
2.68724e-07
4.06445e-07
3.04749e-07
2.8205e-07
3.38446e-07
1.46278e-07
3.69212e-07
3.97748e-07
1.06796e-09
-2.54294e-09
2.76349e-09
-3.75409e-09
4.07198e-09
-2.31118e-09
4.21877e-09
1.05017e-09
3.37935e-09
4.17869e-09
3.37935e-09
3.37935e-09
7.33734e-09
-5.04461e-09
1.82031e-08
-2.22758e-08
3.75558e-08
-4.63752e-08
6.55426e-08
-7.40145e-08
1.01405e-07
-1.01992e-07
1.43953e-07
-1.27791e-07
1.91847e-07
-1.49704e-07
2.43749e-07
-1.66816e-07
2.984e-07
-1.78883e-07
3.54674e-07
-1.86176e-07
4.116e-07
-1.89297e-07
4.68379e-07
-1.8902e-07
5.24384e-07
-1.86163e-07
5.79151e-07
-1.81492e-07
6.32359e-07
-1.75671e-07
6.83812e-07
-1.69228e-07
7.33404e-07
-1.62549e-07
7.81092e-07
-1.55884e-07
8.2687e-07
-1.49358e-07
8.70739e-07
-1.42986e-07
9.12682e-07
-1.3669e-07
9.5264e-07
-1.30308e-07
9.90494e-07
-1.23608e-07
1.02604e-06
-1.16293e-07
1.05897e-06
-1.08007e-07
1.08885e-06
-9.83445e-08
1.11514e-06
-8.68502e-08
1.13711e-06
-7.30309e-08
1.1539e-06
-5.63655e-08
1.16448e-06
-3.63244e-08
1.16767e-06
-1.24094e-08
1.16214e-06
1.57842e-08
1.14647e-06
4.8612e-08
1.11915e-06
8.6331e-08
1.07868e-06
1.28932e-07
1.02363e-06
1.76076e-07
9.528e-07
2.27061e-07
8.65322e-07
2.80773e-07
7.60762e-07
3.35744e-07
6.39211e-07
3.90275e-07
5.01269e-07
4.42692e-07
3.47933e-07
4.91781e-07
1.80464e-07
5.36681e-07
5.78212e-07
1.16551e-09
-3.70845e-09
2.84382e-09
-5.43241e-09
3.70674e-09
-3.1741e-09
2.50302e-09
2.2539e-09
-1.08662e-09
7.76833e-09
-5.04461e-09
7.33734e-09
-5.04461e-09
-5.04461e-09
3.34735e-09
-3.06678e-08
2.26175e-08
-6.56453e-08
5.30337e-08
-1.04431e-07
9.34646e-08
-1.42423e-07
1.42208e-07
-1.76534e-07
1.97481e-07
-2.04977e-07
2.57627e-07
-2.26962e-07
3.21185e-07
-2.42442e-07
3.86896e-07
-2.51887e-07
4.53695e-07
-2.56096e-07
5.20697e-07
-2.56023e-07
5.87191e-07
-2.52657e-07
6.52625e-07
-2.46926e-07
7.16589e-07
-2.39634e-07
7.78793e-07
-2.31432e-07
8.39047e-07
-2.22804e-07
8.97233e-07
-2.1407e-07
9.53275e-07
-2.054e-07
1.00711e-06
-1.96823e-07
1.05867e-06
-1.8825e-07
1.10785e-06
-1.79481e-07
1.15445e-06
-1.70217e-07
1.19824e-06
-1.60074e-07
1.23881e-06
-1.48585e-07
1.27568e-06
-1.3521e-07
1.30817e-06
-1.1934e-07
1.33545e-06
-1.0031e-07
1.3565e-06
-7.74177e-08
1.37012e-06
-4.99421e-08
1.37491e-06
-1.72007e-08
1.36932e-06
2.13723e-08
1.35167e-06
6.6259e-08
1.3202e-06
1.17809e-07
1.2731e-06
1.76023e-07
1.20872e-06
2.40455e-07
1.12562e-06
3.10166e-07
1.02274e-06
3.83652e-07
8.99556e-07
4.58929e-07
7.56148e-07
5.33683e-07
5.93197e-07
6.05642e-07
4.11874e-07
6.73105e-07
2.13669e-07
7.34885e-07
7.91882e-07
9.09226e-10
-4.61768e-09
1.78192e-09
-6.3051e-09
1.02319e-09
-2.41538e-09
-3.0649e-09
6.34198e-09
-1.14101e-08
1.61136e-08
-2.22758e-08
1.82031e-08
-3.06678e-08
3.34735e-09
-3.06678e-08
-3.06678e-08
-1.81892e-08
-7.81239e-08
8.10878e-09
-1.30729e-07
4.74461e-08
-1.8176e-07
9.79437e-08
-2.27032e-07
1.57401e-07
-2.64435e-07
2.23711e-07
-2.93272e-07
2.95019e-07
-3.13749e-07
3.69753e-07
-3.26622e-07
4.46601e-07
-3.32943e-07
5.24476e-07
-3.33898e-07
6.02493e-07
-3.30674e-07
6.79937e-07
-3.2437e-07
7.56249e-07
-3.15946e-07
8.30999e-07
-3.06183e-07
9.03867e-07
-2.95672e-07
9.74615e-07
-2.84817e-07
1.04306e-06
-2.73842e-07
1.10904e-06
-2.62805e-07
1.1724e-06
-2.51611e-07
1.23295e-06
-2.40028e-07
1.29043e-06
-2.27699e-07
1.3445e-06
-2.14148e-07
1.39471e-06
-1.98792e-07
1.44044e-06
-1.80947e-07
1.48094e-06
-1.59837e-07
1.51524e-06
-1.34608e-07
1.54217e-06
-1.04349e-07
1.56036e-06
-6.81282e-08
1.56821e-06
-2.50493e-08
1.56393e-06
2.56438e-08
1.54562e-06
8.45753e-08
1.51123e-06
1.52202e-07
1.45871e-06
2.2854e-07
1.38614e-06
3.13026e-07
1.29185e-06
4.04454e-07
1.17463e-06
5.00877e-07
1.03383e-06
5.99728e-07
8.69528e-07
6.97982e-07
6.82495e-07
7.92676e-07
4.74073e-07
8.81526e-07
2.46002e-07
9.62957e-07
1.03788e-06
2.55656e-10
-4.87333e-09
-5.35958e-10
-5.51349e-09
-4.1323e-09
1.18096e-09
-1.25133e-08
1.4723e-08
-2.70225e-08
3.06227e-08
-4.63752e-08
3.75558e-08
-6.56453e-08
2.26175e-08
-7.81239e-08
-1.81892e-08
-7.81239e-08
-7.81239e-08
-6.25401e-08
-1.46313e-07
-3.08807e-08
-2.13419e-07
1.55278e-08
-2.73441e-07
7.44537e-08
-3.23361e-07
1.43428e-07
-3.62246e-07
2.20116e-07
-3.90437e-07
3.02465e-07
-4.0897e-07
3.88738e-07
-4.19216e-07
4.77491e-07
-4.22652e-07
5.67539e-07
-4.20722e-07
6.57914e-07
-4.14745e-07
7.47835e-07
-4.05866e-07
8.36674e-07
-3.95022e-07
9.23933e-07
-3.82931e-07
1.00921e-06
-3.70096e-07
1.09218e-06
-3.5681e-07
1.17254e-06
-3.43169e-07
1.25002e-06
-3.29088e-07
1.32431e-06
-3.14312e-07
1.39504e-06
-2.98429e-07
1.46176e-06
-2.80875e-07
1.52392e-06
-2.60949e-07
1.58079e-06
-2.37819e-07
1.63148e-06
-2.10528e-07
1.6749e-06
-1.78021e-07
1.70971e-06
-1.39162e-07
1.73436e-06
-9.27818e-08
1.74706e-06
-3.77499e-08
1.7458e-06
2.69095e-08
1.7284e-06
1.01978e-07
1.69257e-06
1.8803e-07
1.636e-06
2.85103e-07
1.55652e-06
3.92507e-07
1.45224e-06
5.08741e-07
1.32175e-06
6.31365e-07
1.16432e-06
7.5715e-07
9.80032e-07
8.82275e-07
7.69723e-07
1.00298e-06
5.34935e-07
1.11631e-06
2.77671e-07
1.22022e-06
1.31555e-06
-7.23895e-10
-4.14944e-09
-3.86368e-09
-2.37371e-09
-1.12072e-08
8.52451e-09
-2.47833e-08
2.82991e-08
-4.60277e-08
5.18671e-08
-7.40145e-08
6.55426e-08
-1.04431e-07
5.30337e-08
-1.30729e-07
8.10878e-09
-1.46313e-07
-6.25401e-08
-1.46313e-07
-1.46313e-07
-1.2835e-07
-2.31382e-07
-9.23513e-08
-3.0944e-07
-3.98488e-08
-3.75863e-07
2.67796e-08
-4.28875e-07
1.04897e-07
-4.68555e-07
1.91964e-07
-4.96037e-07
2.85709e-07
-5.1296e-07
3.84181e-07
-5.21125e-07
4.85754e-07
-5.22295e-07
5.89084e-07
-5.18076e-07
6.93075e-07
-5.09857e-07
7.96832e-07
-4.98779e-07
8.99626e-07
-4.85725e-07
1.00085e-06
-4.71322e-07
1.09999e-06
-4.55953e-07
1.1966e-06
-4.3977e-07
1.29021e-06
-4.22707e-07
1.3804e-06
-4.04495e-07
1.46664e-06
-3.84671e-07
1.54835e-06
-3.62588e-07
1.62483e-06
-3.37427e-07
1.69521e-06
-3.082e-07
1.75845e-06
-2.73766e-07
1.81328e-06
-2.32854e-07
1.85821e-06
-1.8409e-07
1.89148e-06
-1.26051e-07
1.91108e-06
-5.73487e-08
1.91475e-06
2.32365e-08
1.90007e-06
1.16657e-07
1.86449e-06
2.23614e-07
1.80542e-06
3.44168e-07
1.72043e-06
4.77495e-07
1.60741e-06
6.21766e-07
1.46478e-06
7.73994e-07
1.29171e-06
9.30219e-07
1.08826e-06
1.08572e-06
8.55385e-07
1.23586e-06
5.94822e-07
1.37688e-06
3.08869e-07
1.50617e-06
1.62442e-06
-1.88732e-09
-2.26212e-09
-7.73858e-09
3.47756e-09
-1.92567e-08
2.00426e-08
-3.8305e-08
4.73475e-08
-6.61295e-08
7.96915e-08
-1.01992e-07
1.01405e-07
-1.42423e-07
9.34646e-08
-1.8176e-07
4.74461e-08
-2.13419e-07
-3.08807e-08
-2.31382e-07
-1.2835e-07
-2.31382e-07
-2.31382e-07
-2.11404e-07
-3.29417e-07
-1.71508e-07
-4.1576e-07
-1.13258e-07
-4.87125e-07
-3.90859e-08
-5.42727e-07
4.82436e-08
-5.83367e-07
1.45994e-07
-6.1071e-07
2.51658e-07
-6.2679e-07
3.63051e-07
-6.33687e-07
4.78321e-07
-6.33346e-07
5.95933e-07
-6.2747e-07
7.14626e-07
-6.17472e-07
8.33362e-07
-6.0446e-07
9.51275e-07
-5.89235e-07
1.06763e-06
-5.72305e-07
1.18176e-06
-5.53902e-07
1.29305e-06
-5.33996e-07
1.40087e-06
-5.12313e-07
1.50454e-06
-4.88345e-07
1.60331e-06
-4.61361e-07
1.69631e-06
-4.30419e-07
1.78248e-06
-3.94373e-07
1.8606e-06
-3.51888e-07
1.92921e-06
-3.01465e-07
1.9866e-06
-2.41477e-07
2.03078e-06
-1.70234e-07
2.0595e-06
-8.60706e-08
2.07024e-06
1.24961e-08
2.06029e-06
1.26606e-07
2.02682e-06
2.57086e-07
1.96697e-06
4.04023e-07
1.87802e-06
5.66441e-07
1.75763e-06
7.42153e-07
1.60406e-06
9.27573e-07
1.41635e-06
1.11792e-06
1.19457e-06
1.3075e-06
9.3979e-07
1.49065e-06
6.53965e-07
1.6627e-06
3.39722e-07
1.82042e-06
1.96415e-06
-3.07633e-09
8.14211e-10
-1.16535e-08
1.20547e-08
-2.72793e-08
3.56685e-08
-5.1512e-08
7.15802e-08
-8.52425e-08
1.13422e-07
-1.27791e-07
1.43953e-07
-1.76534e-07
1.42208e-07
-2.27032e-07
9.79437e-08
-2.73441e-07
1.55278e-08
-3.0944e-07
-9.23513e-08
-3.29417e-07
-2.11404e-07
-3.29417e-07
-3.29417e-07
-3.07549e-07
-4.37628e-07
-2.63859e-07
-5.30814e-07
-1.99875e-07
-6.06711e-07
-1.18046e-07
-6.65197e-07
-2.12414e-08
-7.07515e-07
8.7613e-08
-7.35644e-07
2.05774e-07
-7.51848e-07
3.30803e-07
-7.58374e-07
4.60605e-07
-7.57272e-07
5.93424e-07
-7.50291e-07
7.27799e-07
-7.38835e-07
8.62514e-07
-7.23951e-07
9.9654e-07
-7.06331e-07
1.12897e-06
-6.86331e-07
1.25896e-06
-6.63991e-07
1.3857e-06
-6.39049e-07
1.50832e-06
-6.1096e-07
1.62587e-06
-5.78912e-07
1.73728e-06
-5.41832e-07
1.84131e-06
-4.98405e-07
1.93651e-06
-4.4709e-07
2.02119e-06
-3.86144e-07
2.09339e-06
-3.13672e-07
2.15085e-06
-2.27695e-07
2.19104e-06
-1.26259e-07
2.21113e-06
-7.59743e-09
2.2081e-06
1.29636e-07
2.1788e-06
2.86386e-07
2.12006e-06
4.6276e-07
2.02889e-06
6.57618e-07
1.90267e-06
8.68374e-07
1.73946e-06
1.09078e-06
1.53822e-06
1.31916e-06
1.29901e-06
1.54671e-06
1.02301e-06
1.76665e-06
7.12431e-07
1.97328e-06
3.70271e-07
2.16257e-06
2.33442e-06
-4.15799e-09
4.9722e-09
-1.51857e-08
2.30824e-08
-3.44549e-08
5.49377e-08
-6.31669e-08
1.00292e-07
-1.0181e-07
1.52065e-07
-1.49704e-07
1.91847e-07
-2.04977e-07
1.97481e-07
-2.64435e-07
1.57401e-07
-3.23361e-07
7.44537e-08
-3.75863e-07
-3.98488e-08
-4.1576e-07
-1.71508e-07
-4.37628e-07
-3.07549e-07
-4.37628e-07
-4.37628e-07
-4.13871e-07
-5.54571e-07
-3.66335e-07
-6.54247e-07
-2.96482e-07
-7.3505e-07
-2.06761e-07
-7.97235e-07
-1.00135e-07
-8.4227e-07
2.02965e-08
-8.72279e-07
1.51557e-07
-8.89635e-07
2.90947e-07
-8.96661e-07
4.36108e-07
-8.95452e-07
5.85033e-07
-8.8776e-07
7.3603e-07
-8.74948e-07
8.87668e-07
-8.57969e-07
1.03871e-06
-8.37373e-07
1.18804e-06
-8.13321e-07
1.3346e-06
-7.85606e-07
1.47731e-06
-7.5367e-07
1.61502e-06
-7.16626e-07
1.74646e-06
-6.7327e-07
1.87016e-06
-6.22107e-07
1.98444e-06
-5.61368e-07
2.08734e-06
-4.89047e-07
2.17663e-06
-4.02956e-07
2.24974e-06
-3.00805e-07
2.3038e-06
-1.80326e-07
2.33566e-06
-3.94521e-08
2.3419e-06
1.23392e-07
2.31903e-06
3.09256e-07
2.26353e-06
5.18265e-07
2.17206e-06
7.49087e-07
2.04174e-06
9.98695e-07
1.87041e-06
1.26211e-06
1.6569e-06
1.53267e-06
1.40128e-06
1.80234e-06
1.10485e-06
2.06308e-06
7.70109e-07
2.30802e-06
4.00466e-07
2.53222e-06
2.73488e-06
-5.04559e-09
1.00178e-08
-1.8061e-08
3.60978e-08
-4.02584e-08
7.71351e-08
-7.25019e-08
1.32536e-07
-1.14915e-07
1.94478e-07
-1.66816e-07
2.43749e-07
-2.26962e-07
2.57627e-07
-2.93272e-07
2.23711e-07
-3.62246e-07
1.43428e-07
-4.28875e-07
2.67796e-08
-4.87125e-07
-1.13258e-07
-5.30814e-07
-2.63859e-07
-5.54571e-07
-4.13871e-07
-5.54571e-07
-5.54571e-07
-5.28874e-07
-6.79944e-07
-4.77367e-07
-7.86557e-07
-4.01437e-07
-8.73165e-07
-3.03525e-07
-9.40182e-07
-1.86672e-07
-9.89132e-07
-5.41421e-08
-1.02217e-06
9.0861e-08
-1.04166e-06
2.45369e-07
-1.04996e-06
4.06742e-07
-1.04913e-06
5.72692e-07
-1.0409e-06
7.41255e-07
-1.02653e-06
9.1074e-07
-1.00686e-06
1.07965e-06
-9.82234e-07
1.24662e-06
-9.52571e-07
1.41029e-06
-9.17346e-07
1.56929e-06
-8.75627e-07
1.72212e-06
-8.26092e-07
1.86707e-06
-7.67059e-07
2.00222e-06
-6.96518e-07
2.12534e-06
-6.12171e-07
2.23389e-06
-5.11506e-07
2.32498e-06
-3.91887e-07
2.39535e-06
-2.50703e-07
2.44146e-06
-8.55612e-08
2.45948e-06
1.05374e-07
2.44549e-06
3.2325e-07
2.39555e-06
5.68197e-07
2.30597e-06
8.38665e-07
2.17354e-06
1.13113e-06
1.99583e-06
1.43982e-06
1.77155e-06
1.75695e-06
1.50074e-06
2.07314e-06
1.18486e-06
2.37895e-06
8.26709e-07
2.66617e-06
4.30164e-07
2.92876e-06
3.16505e-06
-5.70066e-09
1.57184e-08
-2.01601e-08
5.05573e-08
-4.44668e-08
1.01442e-07
-7.921e-08
1.67279e-07
-1.24232e-07
2.395e-07
-1.78883e-07
2.984e-07
-2.42442e-07
3.21185e-07
-3.13749e-07
2.95019e-07
-3.90437e-07
2.20116e-07
-4.68555e-07
1.04897e-07
-5.42727e-07
-3.90859e-08
-6.06711e-07
-1.99875e-07
-6.54247e-07
-3.66335e-07
-6.79944e-07
-5.28874e-07
-6.79944e-07
-6.79944e-07
-6.52228e-07
-8.14272e-07
-5.96583e-07
-9.2881e-07
-5.14317e-07
-1.02245e-06
-4.07853e-07
-1.0956e-06
-2.80304e-07
-1.14971e-06
-1.35088e-07
-1.18688e-06
2.43626e-08
-1.20941e-06
1.94803e-07
-1.21957e-06
3.73289e-07
-1.21938e-06
5.57217e-07
-1.21046e-06
7.44307e-07
-1.19395e-06
9.32555e-07
-1.17048e-06
1.12015e-06
-1.14017e-06
1.30539e-06
-1.10259e-06
1.48659e-06
-1.05682e-06
1.66196e-06
-1.00147e-06
1.82957e-06
-9.3467e-07
1.98723e-06
-8.54173e-07
2.13242e-06
-7.5737e-07
2.2623e-06
-6.41386e-07
2.37362e-06
-5.032e-07
2.46273e-06
-3.39812e-07
2.52563e-06
-1.4847e-07
2.55804e-06
7.29633e-08
2.55555e-06
3.25743e-07
2.51376e-06
6.09989e-07
2.42852e-06
9.23907e-07
2.29623e-06
1.26343e-06
2.11418e-06
1.62186e-06
1.88091e-06
1.99022e-06
1.59642e-06
2.35763e-06
1.26232e-06
2.71305e-06
8.81759e-07
3.04674e-06
4.59129e-07
3.35139e-06
3.62418e-06
-6.12397e-09
2.18424e-08
-2.14894e-08
6.59227e-08
-4.71012e-08
1.27054e-07
-8.33522e-08
2.0353e-07
-1.29903e-07
2.8605e-07
-1.86176e-07
3.54674e-07
-2.51887e-07
3.86896e-07
-3.26622e-07
3.69753e-07
-4.0897e-07
3.02465e-07
-4.96037e-07
1.91964e-07
-5.83367e-07
4.82436e-08
-6.65197e-07
-1.18046e-07
-7.3505e-07
-2.96482e-07
-7.86557e-07
-4.77367e-07
-8.14272e-07
-6.52228e-07
-8.14272e-07
-8.14272e-07
-7.84441e-07
-9.58642e-07
-7.24454e-07
-1.08244e-06
-6.35537e-07
-1.18451e-06
-5.20094e-07
-1.26516e-06
-3.81301e-07
-1.32567e-06
-2.22731e-07
-1.36798e-06
-4.80493e-08
-1.39426e-06
1.39208e-07
-1.40664e-06
3.35765e-07
-1.40702e-06
5.38662e-07
-1.39684e-06
7.45252e-07
-1.37707e-06
9.53154e-07
-1.34807e-06
1.16017e-06
-1.30961e-06
1.3642e-06
-1.26085e-06
1.5631e-06
-1.20037e-06
1.75464e-06
-1.1262e-06
1.93631e-06
-1.03585e-06
2.10533e-06
-9.26388e-07
2.25851e-06
-7.94567e-07
2.39224e-06
-6.36934e-07
2.50248e-06
-4.50049e-07
2.58476e-06
-2.3075e-07
2.63427e-06
2.3451e-08
2.64606e-06
3.13953e-07
2.6152e-06
6.40854e-07
2.53701e-06
1.00209e-06
2.40745e-06
1.39299e-06
2.22344e-06
1.80587e-06
1.98329e-06
2.23037e-06
1.68698e-06
2.65395e-06
1.33624e-06
3.06378e-06
9.34594e-07
3.44839e-06
4.87026e-07
3.79896e-06
4.1112e-06
-6.34206e-09
2.81845e-08
-2.21384e-08
8.17191e-08
-4.83449e-08
1.5326e-07
-8.52328e-08
2.40418e-07
-1.32371e-07
3.33189e-07
-1.89297e-07
4.116e-07
-2.56096e-07
4.53695e-07
-3.32943e-07
4.46601e-07
-4.19216e-07
3.88738e-07
-5.1296e-07
2.85709e-07
-6.1071e-07
1.45994e-07
-7.07515e-07
-2.12414e-08
-7.97235e-07
-2.06761e-07
-8.73165e-07
-4.01437e-07
-9.2881e-07
-5.96583e-07
-9.58642e-07
-7.84441e-07
-9.58642e-07
-9.58642e-07
-9.26578e-07
-1.1145e-06
-8.62007e-07
-1.24908e-06
-7.66067e-07
-1.3611e-06
-6.4114e-07
-1.4506e-06
-4.90471e-07
-1.51865e-06
-3.17791e-07
-1.56694e-06
-1.27009e-07
-1.59742e-06
7.80236e-08
-1.61205e-06
2.93662e-07
-1.61248e-06
5.16544e-07
-1.59995e-06
7.43595e-07
-1.57512e-06
9.71985e-07
-1.538e-06
1.19905e-06
-1.48791e-06
1.42218e-06
-1.4235e-06
1.6387e-06
-1.34273e-06
1.84579e-06
-1.24293e-06
2.04028e-06
-1.12089e-06
2.21867e-06
-9.72956e-07
2.37697e-06
-7.95233e-07
2.51071e-06
-5.83789e-07
2.61495e-06
-3.34991e-07
2.68435e-06
-4.59432e-08
2.71334e-06
2.84963e-07
2.69639e-06
6.57801e-07
2.62825e-06
1.07024e-06
2.50431e-06
1.51692e-06
2.32109e-06
1.98909e-06
2.0766e-06
2.47486e-06
1.77071e-06
2.95983e-06
1.40534e-06
3.42916e-06
9.84351e-07
3.86937e-06
5.13417e-07
4.2699e-06
4.62462e-06
-6.39465e-09
3.45791e-08
-2.22392e-08
9.75636e-08
-4.84654e-08
1.79486e-07
-8.52825e-08
2.77235e-07
-1.32241e-07
3.80147e-07
-1.8902e-07
4.68379e-07
-2.56023e-07
5.20697e-07
-3.33898e-07
5.24476e-07
-4.22652e-07
4.77491e-07
-5.21125e-07
3.84181e-07
-6.2679e-07
2.51658e-07
-7.35644e-07
8.7613e-08
-8.4227e-07
-1.00135e-07
-9.40182e-07
-3.03525e-07
-1.02245e-06
-5.14317e-07
-1.08244e-06
-7.24454e-07
-1.1145e-06
-9.26578e-07
-1.1145e-06
-1.1145e-06
-1.08007e-06
-1.28352e-06
-1.01063e-06
-1.43054e-06
-9.07229e-07
-1.554e-06
-7.72239e-07
-1.65364e-06
-6.08973e-07
-1.7302e-06
-4.21336e-07
-1.78506e-06
-2.13503e-07
-1.81988e-06
1.03258e-08
-1.83631e-06
2.46095e-07
-1.83572e-06
4.8998e-07
-1.81901e-06
7.38406e-07
-1.78642e-06
9.88008e-07
-1.73751e-06
1.23555e-06
-1.67104e-06
1.47783e-06
-1.585e-06
1.7115e-06
-1.47661e-06
1.93302e-06
-1.34241e-06
2.13846e-06
-1.1784e-06
2.32344e-06
-9.80206e-07
2.48304e-06
-7.43394e-07
2.61185e-06
-4.63799e-07
2.70396e-06
-1.38058e-07
2.75319e-06
2.35735e-07
2.75334e-06
6.57651e-07
2.69849e-06
1.12509e-06
2.58343e-06
1.63199e-06
2.40413e-06
2.16839e-06
2.15825e-06
2.72073e-06
1.84554e-06
3.27255e-06
1.468e-06
3.8067e-06
1.02995e-06
4.30743e-06
5.3775e-07
4.7621e-06
5.16237e-06
-6.32484e-09
4.0904e-08
-2.19348e-08
1.13174e-07
-4.77519e-08
2.05303e-07
-8.39655e-08
3.13448e-07
-1.30158e-07
4.2634e-07
-1.86163e-07
5.24384e-07
-2.52657e-07
5.87191e-07
-3.30674e-07
6.02493e-07
-4.20722e-07
5.67539e-07
-5.22295e-07
4.85754e-07
-6.33687e-07
3.63051e-07
-7.51848e-07
2.05774e-07
-8.72279e-07
2.02965e-08
-9.89132e-07
-1.86672e-07
-1.0956e-06
-4.07853e-07
-1.18451e-06
-6.35537e-07
-1.24908e-06
-8.62007e-07
-1.28352e-06
-1.08007e-06
-1.28352e-06
-1.28352e-06
-1.24656e-06
-1.4675e-06
-1.17192e-06
-1.62863e-06
-1.06057e-06
-1.76499e-06
-9.14862e-07
-1.87591e-06
-7.38196e-07
-1.96173e-06
-5.34674e-07
-2.0234e-06
-3.0877e-07
-2.06222e-06
-6.50742e-08
-2.07942e-06
1.91888e-07
-2.07597e-06
4.57759e-07
-2.05229e-06
7.28376e-07
-2.00813e-06
9.99742e-07
-1.94241e-06
1.26794e-06
-1.8532e-06
1.52903e-06
-1.73769e-06
1.77889e-06
-1.59227e-06
2.01309e-06
-1.4126e-06
2.2268e-06
-1.19391e-06
2.41462e-06
-9.31216e-07
2.57062e-06
-6.19806e-07
2.68836e-06
-2.5579e-07
2.76097e-06
1.63126e-07
2.78156e-06
6.37052e-07
2.74351e-06
1.16315e-06
2.64088e-06
1.73462e-06
2.46905e-06
2.34022e-06
2.22523e-06
2.96455e-06
1.90896e-06
3.58882e-06
1.52233e-06
4.19332e-06
1.07007e-06
4.75969e-06
5.5935e-07
5.27282e-06
5.72172e-06
-6.17261e-09
4.70766e-08
-2.1358e-08
1.28359e-07
-4.64744e-08
2.3042e-07
-8.17162e-08
3.4869e-07
-1.26726e-07
4.71349e-07
-1.81492e-07
5.79151e-07
-2.46926e-07
6.52625e-07
-3.2437e-07
6.79937e-07
-4.14745e-07
6.57914e-07
-5.18076e-07
5.89084e-07
-6.33346e-07
4.78321e-07
-7.58374e-07
3.30803e-07
-8.89635e-07
1.51557e-07
-1.02217e-06
-5.41421e-08
-1.14971e-06
-2.80304e-07
-1.26516e-06
-5.20094e-07
-1.3611e-06
-7.66067e-07
-1.43054e-06
-1.01063e-06
-1.4675e-06
-1.24656e-06
-1.4675e-06
-1.4675e-06
-1.42783e-06
-1.6683e-06
-1.34763e-06
-1.84519e-06
-1.22778e-06
-1.99577e-06
-1.07062e-06
-2.11888e-06
-8.79677e-07
-2.21435e-06
-6.59274e-07
-2.28262e-06
-4.14226e-07
-2.32447e-06
-1.49573e-07
-2.34062e-06
1.2962e-07
-2.33148e-06
4.18376e-07
-2.29688e-06
7.11843e-07
-2.23588e-06
1.00527e-06
-2.14663e-06
1.29394e-06
-2.02636e-06
1.57302e-06
-1.87134e-06
1.83745e-06
-1.67704e-06
2.08181e-06
-1.43826e-06
2.30015e-06
-1.14956e-06
2.486e-06
-8.05651e-07
2.63229e-06
-4.02086e-07
2.73153e-06
6.3889e-08
2.77608e-06
5.92497e-07
2.75855e-06
1.18068e-06
2.67224e-06
1.82092e-06
2.51184e-06
2.50062e-06
2.27403e-06
3.20236e-06
1.95805e-06
3.9048e-06
1.56604e-06
4.58533e-06
1.10316e-06
5.22257e-06
5.77414e-07
5.79856e-06
6.29913e-06
-5.97154e-09
5.30481e-08
-2.06205e-08
1.43008e-07
-4.48608e-08
2.5466e-07
-7.89035e-08
3.82733e-07
-1.22462e-07
5.14908e-07
-1.75671e-07
6.32359e-07
-2.39634e-07
7.16589e-07
-3.15946e-07
7.56249e-07
-4.05866e-07
7.47835e-07
-5.09857e-07
6.93075e-07
-6.2747e-07
5.95933e-07
-7.57272e-07
4.60605e-07
-8.96661e-07
2.90947e-07
-1.04166e-06
9.0861e-08
-1.18688e-06
-1.35088e-07
-1.32567e-06
-3.81301e-07
-1.4506e-06
-6.4114e-07
-1.554e-06
-9.07229e-07
-1.62863e-06
-1.17192e-06
-1.6683e-06
-1.42783e-06
-1.6683e-06
-1.6683e-06
-1.62572e-06
-1.88776e-06
-1.53956e-06
-2.08193e-06
-1.41059e-06
-2.24785e-06
-1.2412e-06
-2.38374e-06
-1.03504e-06
-2.48878e-06
-7.9671e-07
-2.5628e-06
-5.31422e-07
-2.60591e-06
-2.44735e-07
-2.61817e-06
5.76578e-08
-2.59928e-06
3.70055e-07
-2.54828e-06
6.86796e-07
-2.46337e-06
1.00225e-06
-2.34181e-06
1.31072e-06
-2.17982e-06
1.60635e-06
-1.97267e-06
1.88298e-06
-1.71489e-06
2.134e-06
-1.40058e-06
2.35228e-06
-1.02393e-06
2.53011e-06
-5.79921e-07
2.65931e-06
-6.53092e-08
2.73148e-06
5.2033e-07
2.73841e-06
1.17374e-06
2.67263e-06
1.88671e-06
2.52802e-06
2.64522e-06
2.30068e-06
3.42971e-06
1.98946e-06
4.21602e-06
1.59651e-06
4.97828e-06
1.12739e-06
5.69169e-06
5.90995e-07
6.33496e-06
6.89013e-06
-5.74732e-09
5.87954e-08
-1.98079e-08
1.57069e-07
-4.30873e-08
2.77939e-07
-7.5815e-08
4.15461e-07
-1.17775e-07
5.56868e-07
-1.69228e-07
6.83812e-07
-2.31432e-07
7.78793e-07
-3.06183e-07
8.30999e-07
-3.95022e-07
8.36674e-07
-4.98779e-07
7.96832e-07
-6.17472e-07
7.14626e-07
-7.50291e-07
5.93424e-07
-8.95452e-07
4.36108e-07
-1.04996e-06
2.45369e-07
-1.20941e-06
2.43626e-08
-1.36798e-06
-2.22731e-07
-1.51865e-06
-4.90471e-07
-1.65364e-06
-7.72239e-07
-1.76499e-06
-1.06057e-06
-1.84519e-06
-1.34763e-06
-1.88776e-06
-1.62572e-06
-1.88776e-06
-1.88776e-06
-1.84206e-06
-2.12763e-06
-1.74949e-06
-2.34043e-06
-1.61076e-06
-2.52247e-06
-1.42829e-06
-2.67124e-06
-1.20594e-06
-2.78515e-06
-9.4861e-07
-2.86324e-06
-6.61994e-07
-2.90479e-06
-3.52257e-07
-2.90901e-06
-2.58249e-08
-2.87471e-06
3.10753e-07
-2.79995e-06
6.50867e-07
-2.68193e-06
9.87838e-07
-2.51679e-06
1.31485e-06
-2.29968e-06
1.62483e-06
-2.02487e-06
1.91035e-06
-1.6861e-06
2.16349e-06
-1.27706e-06
2.37579e-06
-7.92228e-07
2.53833e-06
-2.27846e-07
2.64189e-06
4.16771e-07
2.67745e-06
1.13818e-06
2.63667e-06
1.9275e-06
2.51264e-06
2.76925e-06
2.30074e-06
3.64161e-06
1.99942e-06
4.51734e-06
1.61074e-06
5.36696e-06
1.14066e-06
6.16176e-06
5.99002e-07
6.87662e-06
7.48913e-06
-5.51788e-09
6.43133e-08
-1.898e-08
1.70531e-07
-4.1278e-08
3.00237e-07
-7.2655e-08
4.46838e-07
-1.12958e-07
5.97171e-07
-1.62549e-07
7.33404e-07
-2.22804e-07
8.39047e-07
-2.95672e-07
9.03867e-07
-3.82931e-07
9.23933e-07
-4.85725e-07
8.99626e-07
-6.0446e-07
8.33362e-07
-7.38835e-07
7.27799e-07
-8.8776e-07
5.85033e-07
-1.04913e-06
4.06742e-07
-1.21957e-06
1.94803e-07
-1.39426e-06
-4.80493e-08
-1.56694e-06
-3.17791e-07
-1.7302e-06
-6.08973e-07
-1.87591e-06
-9.14862e-07
-1.99577e-06
-1.22778e-06
-2.08193e-06
-1.53956e-06
-2.12763e-06
-1.84206e-06
-2.12763e-06
-2.12763e-06
-2.07857e-06
-2.38948e-06
-1.97912e-06
-2.62192e-06
-1.82994e-06
-2.82042e-06
-1.63354e-06
-2.98156e-06
-1.39399e-06
-3.10279e-06
-1.1166e-06
-3.18218e-06
-8.0762e-07
-3.21799e-06
-4.7393e-07
-3.2084e-06
-1.22817e-07
-3.15106e-06
2.38177e-07
-3.04292e-06
6.01331e-07
-2.87994e-06
9.58748e-07
-2.65709e-06
1.3023e-06
-2.36842e-06
1.62353e-06
-2.00733e-06
1.91358e-06
-1.56712e-06
2.16311e-06
-1.04176e-06
2.36232e-06
-4.27054e-07
2.50112e-06
2.77966e-07
2.56963e-06
1.06968e-06
2.5586e-06
1.93852e-06
2.4603e-06
2.86756e-06
2.26936e-06
3.83255e-06
1.98374e-06
4.80296e-06
1.60538e-06
5.74531e-06
1.14061e-06
6.62653e-06
6.00195e-07
7.41703e-06
8.08932e-06
-5.29419e-09
6.96075e-08
-1.81735e-08
1.8341e-07
-3.95094e-08
3.21573e-07
-6.95514e-08
4.7688e-07
-1.08196e-07
6.35816e-07
-1.55884e-07
7.81092e-07
-2.1407e-07
8.97233e-07
-2.84817e-07
9.74615e-07
-3.70096e-07
1.00921e-06
-4.71322e-07
1.00085e-06
-5.89235e-07
9.51275e-07
-7.23951e-07
8.62514e-07
-8.74948e-07
7.3603e-07
-1.0409e-06
5.72692e-07
-1.21938e-06
3.73289e-07
-1.40664e-06
1.39208e-07
-1.59742e-06
-1.27009e-07
-1.78506e-06
-4.21336e-07
-1.96173e-06
-7.38196e-07
-2.11888e-06
-1.07062e-06
-2.24785e-06
-1.41059e-06
-2.34043e-06
-1.74949e-06
-2.38948e-06
-2.07857e-06
-2.38948e-06
-2.38948e-06
-2.33682e-06
-2.67459e-06
-2.23e-06
-2.92724e-06
-2.06966e-06
-3.14189e-06
-1.85844e-06
-3.31401e-06
-1.6007e-06
-3.43992e-06
-1.30223e-06
-3.51646e-06
-9.69955e-07
-3.54067e-06
-6.11591e-07
-3.50943e-06
-2.35435e-07
-3.41907e-06
1.49808e-07
-3.26518e-06
5.35124e-07
-3.04241e-06
9.11205e-07
-2.74451e-06
1.26843e-06
-2.36456e-06
1.59679e-06
-1.89548e-06
1.88588e-06
-1.33084e-06
2.12489e-06
-6.66065e-07