/*--------------------------------*- C++ -*----------------------------------*\
| =========                 |                                                 |
| \\      /  F ield         | OpenFOAM: The Open Source CFD Toolbox           |
|  \\    /   O peration     | Version:  v1912                                 |
|   \\  /    A nd           | Website:  www.openfoam.com                      |
|    \\/     M anipulation  |                                                 |
\*---------------------------------------------------------------------------*/
FoamFile
{
    version     2.0;
    format      ascii;
    class       volScalarField;
    location    "8000";
    object      epsilon;
}
// * * * * * * * * * * * * * * * * * * * * * * * * * * * * * * * * * * * * * //

dimensions      [0 2 -3 0 0 0 0];


internalField   nonuniform List<scalar> 
2500
(
0.0113805
0.0125692
0.0154825
0.0204044
0.0275073
0.0368457
0.0483596
0.0619006
0.0772649
0.0942195
0.112523
0.131941
0.152256
0.173277
0.194839
0.216812
0.23909
0.261593
0.28426
0.307044
0.32991
0.352828
0.375772
0.398718
0.421642
0.444519
0.467321
0.490019
0.512579
0.534966
0.55714
0.579058
0.600672
0.621932
0.642779
0.663154
0.682989
0.702213
0.72075
0.738517
0.755426
0.771382
0.786282
0.800014
0.812452
0.823449
0.832827
0.840366
0.845786
0.848725
0.0125692
0.0100408
0.0100436
0.0117285
0.0147319
0.0188563
0.0239567
0.0299013
0.0365619
0.0438146
0.0515431
0.0596416
0.0680177
0.0765934
0.0853058
0.0941056
0.102956
0.111831
0.12071
0.129582
0.138436
0.147266
0.156066
0.164829
0.17355
0.182223
0.19084
0.199393
0.207871
0.216264
0.224559
0.232741
0.240796
0.248706
0.256451
0.264011
0.271363
0.278481
0.285338
0.291906
0.298153
0.304044
0.309543
0.314608
0.319194
0.323247
0.326703
0.32948
0.331476
0.332558
0.0154825
0.0100436
0.00801587
0.00789951
0.00897196
0.0108631
0.0133653
0.016346
0.0197076
0.0233711
0.0272693
0.0313447
0.0355491
0.0398433
0.0441965
0.0485855
0.0529937
0.0574093
0.0618247
0.0662349
0.0706367
0.0750278
0.0794064
0.0837708
0.0881188
0.092448
0.0967551
0.101037
0.105288
0.109504
0.113678
0.117804
0.121874
0.125878
0.129808
0.133651
0.137397
0.141031
0.14454
0.147907
0.151116
0.154148
0.156982
0.159597
0.161968
0.164066
0.165856
0.167296
0.168332
0.168893
0.0204044
0.0117285
0.00789951
0.00655004
0.00656299
0.00739215
0.00875561
0.0104962
0.0125171
0.0147512
0.0171483
0.0196682
0.0222792
0.0249561
0.0276796
0.0304354
0.0332133
0.0360063
0.0388099
0.0416211
0.0444378
0.0472588
0.0500828
0.0529085
0.0557343
0.0585584
0.0613785
0.0641917
0.0669947
0.0697837
0.0725541
0.0753009
0.0780182
0.0806997
0.0833381
0.0859252
0.0884523
0.0909098
0.0932872
0.0955732
0.0977552
0.09982
0.101753
0.103539
0.105159
0.106594
0.10782
0.108806
0.109515
0.1099
0.0275073
0.0147319
0.00897196
0.00656299
0.00584992
0.00606731
0.00684268
0.00798094
0.009371
0.0109437
0.0126522
0.0144626
0.0163499
0.018295
0.0202838
0.0223062
0.024355
0.0264254
0.028514
0.0306187
0.0327379
0.0348704
0.037015
0.0391702
0.0413345
0.0435059
0.0456821
0.0478604
0.0500377
0.0522102
0.0543738
0.056524
0.0586556
0.0607627
0.0628392
0.064878
0.0668715
0.0688118
0.0706901
0.0724969
0.074222
0.0758546
0.0773831
0.0787948
0.0800757
0.0812096
0.0821776
0.0829562
0.0835161
0.0838198
0.0368457
0.0188563
0.0108631
0.00739215
0.00606731
0.00584379
0.00624005
0.00701529
0.00803838
0.0092322
0.0105482
0.0119542
0.0134279
0.0149535
0.0165202
0.0181202
0.0197485
0.0214015
0.0230771
0.0247738
0.0264904
0.0282258
0.0299789
0.0317485
0.0335328
0.0353298
0.0371372
0.0389522
0.0407715
0.0425915
0.0444082
0.0462169
0.0480128
0.0497903
0.0515436
0.0532661
0.054951
0.056591
0.0581784
0.0597047
0.0611613
0.0625389
0.0638276
0.0650167
0.0660946
0.067048
0.0678611
0.0685146
0.0689842
0.0692389
0.0483596
0.0239567
0.0133653
0.00875561
0.00684268
0.00624005
0.00633745
0.00684231
0.00760107
0.00852682
0.00956749
0.0106904
0.0118745
0.0131057
0.0143749
0.0156761
0.0170055
0.0183609
0.0197408
0.0211444
0.0225712
0.0240204
0.0254913
0.0269827
0.0284931
0.0300206
0.0315629
0.0331174
0.0346807
0.0362492
0.0378189
0.0393853
0.0409435
0.0424881
0.0440133
0.045513
0.0469807
0.0484096
0.0497923
0.0511214
0.052389
0.0535869
0.0547065
0.0557385
0.0566729
0.0574985
0.0582018
0.0587664
0.0591718
0.0593915
0.0619006
0.0299013
0.016346
0.0104962
0.00798094
0.00701529
0.00684231
0.00711228
0.0076479
0.0083522
0.00916907
0.0100646
0.0110176
0.012015
0.0130482
0.014112
0.0152036
0.016321
0.0174637
0.0186312
0.0198235
0.0210402
0.0222811
0.0235454
0.0248319
0.0261392
0.027465
0.028807
0.0301622
0.031527
0.0328974
0.0342692
0.0356374
0.0369967
0.0383416
0.039666
0.0409636
0.0422277
0.0434516
0.044628
0.0457498
0.0468095
0.0477991
0.0487106
0.049535
0.0502627
0.0508818
0.0513784
0.0517346
0.0519276
0.0772649
0.0365619
0.0197076
0.0125171
0.009371
0.00803838
0.00760107
0.0076479
0.00797699
0.00848114
0.00909998
0.00979794
0.0105533
0.0113526
0.0121875
0.0130527
0.0139454
0.0148639
0.0158075
0.0167762
0.0177701
0.0187892
0.0198337
0.0209031
0.0219969
0.0231139
0.0242526
0.0254108
0.026586
0.027775
0.028974
0.030179
0.0313853
0.0325877
0.0337807
0.0349585
0.0361147
0.037243
0.0383366
0.0393887
0.0403923
0.0413404
0.0422257
0.0430407
0.0437774
0.044427
0.0449792
0.0454217
0.0457388
0.0459105
0.0942195
0.0438146
0.0233711
0.0147512
0.0109437
0.0092322
0.00852682
0.0083522
0.00848114
0.008796
0.00923182
0.00975087
0.0103303
0.010956
0.0116189
0.0123134
0.013036
0.0137848
0.0145588
0.0153577
0.0161817
0.0170308
0.0179053
0.0188053
0.0197304
0.0206802
0.0216536
0.022649
0.0236644
0.0246971
0.0257439
0.026801
0.0278642
0.0289285
0.0299886
0.0310389
0.0320732
0.0330851
0.034068
0.0350152
0.0359198
0.0367751
0.0375741
0.0383096
0.0389744
0.0395602
0.0400578
0.0404563
0.0407416
0.0408961
0.112523
0.0515431
0.0272693
0.0171483
0.0126522
0.0105482
0.00956749
0.00916907
0.00909998
0.00923182
0.00949455
0.00984777
0.010267
0.0107369
0.0112475
0.0117923
0.0123671
0.0129692
0.0135971
0.0142501
0.0149277
0.0156301
0.0163575
0.0171099
0.0178874
0.0186899
0.0195167
0.0203669
0.0212391
0.0221313
0.0230407
0.0239644
0.0248984
0.0258383
0.0267792
0.0277156
0.0286415
0.0295508
0.0304369
0.031293
0.0321125
0.0328885
0.0336142
0.0342828
0.0348872
0.0354198
0.0358721
0.036234
0.036493
0.0366332
0.131941
0.0596416
0.0313447
0.0196682
0.0144626
0.0119542
0.0106904
0.0100646
0.00979794
0.00975087
0.00984777
0.010045
0.0103159
0.0106436
0.0110169
0.0114282
0.0118724
0.012346
0.0128467
0.013373
0.013924
0.0144995
0.0150993
0.0157234
0.016372
0.017045
0.0177423
0.0184633
0.0192073
0.0199727
0.0207577
0.0215599
0.022376
0.0232022
0.0240342
0.0248668
0.0256944
0.026511
0.0273103
0.0280854
0.0288296
0.0295362
0.0301984
0.0308093
0.0313621
0.0318494
0.0322633
0.0325944
0.0328313
0.0329594
0.152256
0.0680177
0.0355491
0.0222792
0.0163499
0.0134279
0.0118745
0.0110176
0.0105533
0.0103303
0.010267
0.0103159
0.0104478
0.010644
0.0108917
0.0111822
0.0115093
0.0118685
0.0122568
0.0126719
0.0131123
0.0135772
0.014066
0.0145784
0.0151145
0.0156741
0.0162573
0.0168639
0.0174933
0.0181449
0.0188173
0.0195088
0.0202169
0.0209386
0.02167
0.0224068
0.0231436
0.023875
0.0245948
0.0252962
0.0259725
0.0266169
0.0272227
0.0277829
0.0282905
0.0287386
0.0291194
0.029424
0.029642
0.0297599
0.173277
0.0765934
0.0398433
0.0249561
0.018295
0.0149535
0.0131057
0.012015
0.0113526
0.010956
0.0107369
0.0106436
0.010644
0.0107171
0.0108485
0.0110281
0.0112486
0.0115047
0.0117922
0.0121084
0.012451
0.0128185
0.01321
0.0136247
0.0140622
0.0145225
0.0150055
0.0155109
0.0160387
0.0165884
0.0171593
0.0177503
0.0183597
0.018985
0.0196234
0.020271
0.0209234
0.0215753
0.022221
0.0228541
0.0234678
0.0240554
0.0246099
0.0251245
0.025592
0.0260054
0.0263571
0.0266387
0.0268402
0.0269492
0.194839
0.0853058
0.0441965
0.0276796
0.0202838
0.0165202
0.0143749
0.0130482
0.0121875
0.0116189
0.0112475
0.0110169
0.0108917
0.0108485
0.010871
0.0109477
0.0110701
0.0112317
0.0114278
0.0116548
0.0119097
0.0121906
0.0124958
0.0128242
0.0131751
0.013548
0.0139427
0.0143589
0.0147967
0.0152557
0.0157356
0.0162358
0.0167551
0.0172921
0.0178443
0.0184089
0.0189821
0.0195593
0.0201355
0.0207042
0.0212593
0.0217939
0.022301
0.0227736
0.0232046
0.0235867
0.0239124
0.0241735
0.0243605
0.0244617
0.216812
0.0941056
0.0485855
0.0304354
0.0223062
0.0181202
0.0156761
0.014112
0.0130527
0.0123134
0.0117923
0.0114282
0.0111822
0.0110281
0.0109477
0.0109278
0.0109587
0.0110331
0.0111452
0.0112907
0.0114662
0.0116689
0.0118967
0.0121482
0.0124222
0.0127177
0.0130344
0.0133718
0.0137297
0.0141081
0.0145068
0.0149253
0.0153632
0.0158193
0.0162922
0.0167797
0.0172787
0.0177855
0.0182956
0.0188034
0.0193028
0.0197872
0.0202496
0.020683
0.02108
0.0214333
0.0217354
0.021978
0.0221519
0.0222461
0.23909
0.102956
0.0529937
0.0332133
0.024355
0.0197485
0.0170055
0.0152036
0.0139454
0.013036
0.0123671
0.0118724
0.0115093
0.0112486
0.0110701
0.0109587
0.0109037
0.0108964
0.0109306
0.011001
0.0111035
0.0112349
0.0113927
0.0115748
0.0117797
0.0120062
0.0122534
0.0125208
0.0128079
0.0131146
0.0134408
0.0137862
0.0141506
0.0145333
0.0149334
0.0153495
0.0157793
0.0162198
0.0166673
0.0171169
0.017563
0.0179992
0.0184189
0.0188149
0.0191798
0.0195061
0.0197861
0.0200116
0.0201736
0.0202615
0.261593
0.111831
0.0574093
0.0360063
0.0264254
0.0214015
0.0183609
0.016321
0.0148639
0.0137848
0.0129692
0.012346
0.0118685
0.0115047
0.0112317
0.0110331
0.0108964
0.0108123
0.0107733
0.0107737
0.0108086
0.0108744
0.010968
0.0110869
0.0112293
0.0113935
0.0115784
0.0117832
0.0120071
0.01225
0.0125114
0.0127914
0.0130897
0.013406
0.0137398
0.0140902
0.0144557
0.014834
0.0152222
0.0156163
0.0160111
0.0164009
0.0167792
0.0171391
0.0174731
0.0177736
0.0180326
0.0182421
0.0183929
0.0184748
0.28426
0.12071
0.0618247
0.0388099
0.028514
0.0230771
0.0197408
0.0174637
0.0158075
0.0145588
0.0135971
0.0128467
0.0122568
0.0117922
0.0114278
0.0111452
0.0109306
0.0107733
0.0106652
0.0105997
0.0105714
0.0105762
0.0106104
0.0106713
0.0107565
0.0108641
0.0109926
0.0111409
0.0113082
0.0114938
0.0116973
0.0119187
0.0121576
0.0124141
0.0126878
0.0129781
0.0132842
0.0136045
0.0139368
0.0142779
0.0146234
0.0149682
0.0153063
0.0156309
0.0159347
0.0162101
0.0164489
0.0166429
0.0167831
0.0168593
0.307044
0.129582
0.0662349
0.0416211
0.0306187
0.0247738
0.0211444
0.0186312
0.0167762
0.0153577
0.0142501
0.013373
0.0126719
0.0121084
0.0116548
0.0112907
0.011001
0.0107737
0.0105997
0.0104717
0.0103839
0.0103314
0.0103103
0.0103173
0.0103497
0.0104054
0.0104824
0.0105795
0.0106955
0.0108295
0.010981
0.0111497
0.0113354
0.0115379
0.0117571
0.0119928
0.0122444
0.0125109
0.0127908
0.0130817
0.0133799
0.0136812
0.0139799
0.0142699
0.014544
0.0147946
0.0150135
0.0151924
0.0153222
0.015393
0.32991
0.138436
0.0706367
0.0444378
0.0327379
0.0264904
0.0225712
0.0198235
0.0177701
0.0161817
0.0149277
0.013924
0.0131123
0.012451
0.0119097
0.0114662
0.0111035
0.0108086
0.0105714
0.0103839
0.0102395
0.0101329
0.0100598
0.0100164
0.0099998
0.0100074
0.0100371
0.0100873
0.0101565
0.0102437
0.0103483
0.0104695
0.0106072
0.0107611
0.0109311
0.0111172
0.011319
0.0115359
0.011767
0.0120106
0.0122638
0.012523
0.0127834
0.0130392
0.0132838
0.0135097
0.0137088
0.0138726
0.0139921
0.0140575
0.352828
0.147266
0.0750278
0.0472588
0.0348704
0.0282258
0.0240204
0.0210402
0.0187892
0.0170308
0.0156301
0.0144995
0.0135772
0.0128185
0.0121906
0.0116689
0.0112349
0.0108744
0.0105762
0.0103314
0.0101329
0.0099749
0.0098525
0.00976169
0.0096991
0.0096619
0.00964773
0.00965462
0.00968098
0.00972552
0.00978728
0.00986555
0.00995982
0.0100698
0.0101954
0.0103365
0.0104929
0.0106644
0.0108504
0.0110496
0.0112602
0.011479
0.0117021
0.0119244
0.0121397
0.0123409
0.01252
0.0126686
0.0127777
0.0128376
0.375772
0.156066
0.0794064
0.0500828
0.037015
0.0299789
0.0254913
0.0222811
0.0198337
0.0179053
0.0163575
0.0150993
0.014066
0.01321
0.0124958
0.0118967
0.0113927
0.010968
0.0106104
0.0103103
0.0100598
0.0098525
0.00968316
0.00954737
0.00944141
0.00936217
0.00930702
0.00927373
0.00926048
0.00926577
0.00928841
0.00932749
0.00938236
0.00945259
0.00953793
0.00963825
0.00975348
0.00988346
0.0100279
0.010186
0.0103564
0.0105368
0.0107238
0.0109132
0.0110994
0.0112758
0.0114347
0.0115678
0.0116663
0.0117206
0.398718
0.164829
0.0837708
0.0529085
0.0391702
0.0317485
0.0269827
0.0235454
0.0209031
0.0188053
0.0171099
0.0157234
0.0145784
0.0136247
0.0128242
0.0121482
0.0115748
0.0110869
0.0106713
0.0103173
0.0100164
0.00976169
0.00954737
0.00936866
0.00922154
0.00910259
0.00900891
0.00893806
0.00888797
0.00885693
0.00884355
0.00884673
0.00886563
0.00889967
0.00894847
0.00901181
0.00908959
0.00918173
0.00928803
0.00940808
0.00954101
0.009685
0.00983749
0.00999489
0.0101524
0.0103039
0.0104422
0.0105595
0.010647
0.0106956
0.421642
0.17355
0.0881188
0.0557343
0.0413345
0.0335328
0.0284931
0.0248319
0.0219969
0.0197304
0.0178874
0.016372
0.0151145
0.0140622
0.0131751
0.0124222
0.0117797
0.0112293
0.0107565
0.0103497
0.0099998
0.0096991
0.00944141
0.00922154
0.00903511
0.00887842
0.00874831
0.00864211
0.00855754
0.00849267
0.00844593
0.00841601
0.00840192
0.00840288
0.00841838
0.00844809
0.00849182
0.00854947
0.00862094
0.00870598
0.00880405
0.0089139
0.0090335
0.00915996
0.00928922
0.00941595
0.00953362
0.00963469
0.0097109
0.00975349
0.444519
0.182223
0.092448
0.0585584
0.0435059
0.0353298
0.0300206
0.0261392
0.0231139
0.0206802
0.0186899
0.017045
0.0156741
0.0145225
0.013548
0.0127177
0.0120062
0.0113935
0.0108641
0.0104054
0.0100074
0.0096619
0.00936217
0.00910259
0.00887842
0.00868566
0.00852091
0.00838126
0.00826421
0.00816766
0.00808982
0.00802923
0.00798469
0.00795527
0.00794031
0.00793932
0.00795202
0.00797826
0.00801792
0.00807085
0.00813671
0.00821471
0.00830323
0.00840005
0.00850185
0.00860406
0.00870089
0.00878545
0.00884999
0.00888635
0.467321
0.19084
0.0967551
0.0613785
0.0456821
0.0371372
0.0315629
0.027465
0.0242526
0.0216536
0.0195167
0.0177423
0.0162573
0.0150055
0.0139427
0.0130344
0.0122534
0.0115784
0.0109926
0.0104824
0.0100371
0.00964773
0.00930702
0.00900891
0.00874831
0.00852091
0.00832304
0.00815156
0.00800377
0.00787736
0.00777037
0.00768117
0.00760838
0.00755092
0.00750795
0.00747885
0.00746321
0.00746078
0.00747139
0.00749493
0.00753115
0.00757958
0.00763897
0.00770763
0.00778294
0.0078611
0.00793715
0.00800496
0.00805754
0.00808746
0.490019
0.199393
0.101037
0.0641917
0.0478604
0.0389522
0.0331174
0.028807
0.0254108
0.022649
0.0203669
0.0184633
0.0168639
0.0155109
0.0143589
0.0133718
0.0125208
0.0117832
0.0111409
0.0105795
0.0100873
0.00965462
0.00927373
0.00893806
0.00864211
0.00838126
0.00815156
0.00794963
0.00777257
0.00761787
0.00748342
0.00736738
0.00726825
0.00718476
0.00711592
0.00706097
0.00701935
0.0069907
0.00697477
0.00697141
0.00698043
0.00700152
0.00703378
0.0070759
0.00712588
0.00718069
0.00723621
0.00728722
0.00732762
0.00735092
0.512579
0.207871
0.105288
0.0669947
0.0500377
0.0407715
0.0346807
0.0301622
0.026586
0.0236644
0.0212391
0.0192073
0.0174933
0.0160387
0.0147967
0.0137297
0.0128079
0.0120071
0.0113082
0.0106955
0.0101565
0.00968098
0.00926048
0.00888797
0.00855754
0.00826421
0.00800377
0.00777257
0.0075675
0.00738587
0.00722539
0.00708406
0.00696021
0.00685243
0.00675958
0.00668075
0.00661523
0.00656253
0.0065223
0.00649433
0.00647841
0.0064743
0.00648143
0.00649872
0.0065247
0.00655706
0.00659254
0.00662687
0.00665502
0.00667159
0.534966
0.216264
0.109504
0.0697837
0.0522102
0.0425915
0.0362492
0.031527
0.027775
0.0246971
0.0221313
0.0199727
0.0181449
0.0165884
0.0152557
0.0141081
0.0131146
0.01225
0.0114938
0.0108295
0.0102437
0.00972552
0.00926577
0.00885693
0.00849267
0.00816766
0.00787736
0.00761787
0.00738587
0.00717848
0.0069932
0.0068279
0.00668075
0.00655019
0.00643494
0.00633392
0.00624631
0.00617148
0.00610896
0.00605844
0.00601967
0.00599242
0.00597633
0.00597053
0.00597397
0.00598497
0.00600109
0.00601909
0.00603507
0.0060449
0.55714
0.224559
0.113678
0.0725541
0.0543738
0.0444082
0.0378189
0.0328974
0.028974
0.0257439
0.0230407
0.0207577
0.0188173
0.0171593
0.0157356
0.0145068
0.0134408
0.0125114
0.0116973
0.010981
0.0103483
0.00978728
0.00928841
0.00884355
0.00844593
0.00808982
0.00777037
0.00748342
0.00722539
0.0069932
0.00678419
0.00659606
0.00642683
0.00627479
0.00613851
0.0060168
0.00590869
0.0058134
0.00573036
0.00565913
0.00559942
0.00555096
0.00551347
0.00548631
0.00546874
0.00545961
0.00545727
0.00545948
0.00546356
0.00546673
0.579058
0.232741
0.117804
0.0753009
0.056524
0.0462169
0.0393853
0.0342692
0.030179
0.026801
0.0239644
0.0215599
0.0195088
0.0177503
0.0162358
0.0149253
0.0137862
0.0127914
0.0119187
0.0111497
0.0104695
0.00986555
0.00932749
0.00884673
0.00841601
0.00802923
0.00768117
0.00736738
0.00708406
0.0068279
0.00659606
0.00638607
0.0061958
0.0060234
0.00586731
0.00572619
0.00559894
0.00548466
0.00538266
0.00529238
0.00521343
0.00514551
0.00508837
0.00504155
0.00500452
0.00497662
0.00495688
0.00494404
0.00493667
0.00493337
0.600672
0.240796
0.121874
0.0780182
0.0586556
0.0480128
0.0409435
0.0356374
0.0313853
0.0278642
0.0248984
0.022376
0.0202169
0.0183597
0.0167551
0.0153632
0.0141506
0.0130897
0.0121576
0.0113354
0.0106072
0.00995982
0.00938236
0.00886563
0.00840192
0.00798469
0.00760838
0.00726825
0.00696021
0.00668075
0.00642683
0.0061958
0.00598538
0.00579358
0.00561871
0.00545929
0.0053141
0.00518212
0.00506252
0.00495464
0.004858
0.00477222
0.00469704
0.00463219
0.00457727
0.00453199
0.00449605
0.0044691
0.00445088
0.00444144
0.621932
0.248706
0.125878
0.0806997
0.0607627
0.0497903
0.0424881
0.0369967
0.0325877
0.0289285
0.0258383
0.0232022
0.0209386
0.018985
0.0172921
0.0158193
0.0145333
0.013406
0.0124141
0.0115379
0.0107611
0.0100698
0.00945259
0.00889967
0.00840288
0.00795527
0.00755092
0.00718476
0.00685243
0.00655019
0.00627479
0.0060234
0.00579358
0.00558321
0.00539043
0.00521368
0.00505158
0.004903
0.004767
0.00464282
0.00452985
0.00442768
0.00433599
0.00425462
0.00418332
0.00412214
0.00407131
0.00403132
0.00400305
0.00398789
0.642779
0.256451
0.129808
0.0833381
0.0628392
0.0515436
0.0440133
0.0383416
0.0337807
0.0299886
0.0267792
0.0240342
0.02167
0.0196234
0.0178443
0.0162922
0.0149334
0.0137398
0.0126878
0.0117571
0.0109311
0.0101954
0.00953793
0.00894847
0.00841838
0.00794031
0.00750795
0.00711592
0.00675958
0.00643494
0.00613851
0.00586731
0.00561871
0.00539043
0.00518051
0.00498723
0.00480912
0.00464491
0.00449355
0.00435419
0.00422613
0.00410887
0.00400207
0.00390563
0.00381945
0.00374385
0.00367954
0.00362775
0.00359037
0.00357002
0.663154
0.264011
0.133651
0.0859252
0.064878
0.0532661
0.045513
0.039666
0.0349585
0.0310389
0.0277156
0.0248668
0.0224068
0.020271
0.0184089
0.0167797
0.0153495
0.0140902
0.0129781
0.0119928
0.0111172
0.0103365
0.00963825
0.00901181
0.00844809
0.00793932
0.00747885
0.00706097
0.00668075
0.00633392
0.0060168
0.00572619
0.00545929
0.00521368
0.00498723
0.00477812
0.00458474
0.00440573
0.00423994
0.00408639
0.00394433
0.00381317
0.00369257
0.00358241
0.00348284
0.00339434
0.00331805
0.00325585
0.00321048
0.00318559
0.682989
0.271363
0.137397
0.0884523
0.0668715
0.054951
0.0469807
0.0409636
0.0361147
0.0320732
0.0286415
0.0256944
0.0231436
0.0209234
0.0189821
0.0172787
0.0157793
0.0144557
0.0132842
0.0122444
0.011319
0.0104929
0.00975348
0.00908959
0.00849182
0.00795202
0.00746321
0.00701935
0.00661523
0.00624631
0.00590869
0.00559894
0.0053141
0.00505158
0.00480912
0.00458474
0.00437674
0.00418365
0.00400421
0.00383737
0.00368228
0.00353833
0.00340513
0.00328262
0.00317111
0.00307129
0.00298468
0.00291365
0.00286162
0.002833
0.702213
0.278481
0.141031
0.0909098
0.0688118
0.056591
0.0484096
0.0422277
0.037243
0.0330851
0.0295508
0.026511
0.023875
0.0215753
0.0195593
0.0177855
0.0162198
0.014834
0.0136045
0.0125109
0.0115359
0.0106644
0.00988346
0.00918173
0.00854947
0.00797826
0.00746078
0.0069907
0.00656253
0.00617148
0.0058134
0.00548466
0.00518212
0.004903
0.00464491
0.00440573
0.00418365
0.00397709
0.0037847
0.00360534
0.00343813
0.0032824
0.00313779
0.00300429
0.00288237
0.00277297
0.00267788
0.00259988
0.00254277
0.00251137
0.72075
0.285338
0.14454
0.0932872
0.0706901
0.0581784
0.0497923
0.0434516
0.0383366
0.034068
0.0304369
0.0273103
0.0245948
0.022221
0.0201355
0.0182956
0.0166673
0.0152222
0.0139368
0.0127908
0.011767
0.0108504
0.0100279
0.00928803
0.00862094
0.00801792
0.00747139
0.00697477
0.0065223
0.00610896
0.00573036
0.00538266
0.00506252
0.004767
0.00449355
0.00423994
0.00400421
0.0037847
0.00357996
0.00338881
0.00321031
0.00304381
0.00288898
0.00274593
0.00261528
0.00249826
0.00239687
0.00231408
0.00225379
0.00222079
0.738517
0.291906
0.147907
0.0955732
0.0724969
0.0597047
0.0511214
0.044628
0.0393887
0.0350152
0.031293
0.0280854
0.0252962
0.0228541
0.0207042
0.0188034
0.0171169
0.0156163
0.0142779
0.0130817
0.0120106
0.0110496
0.010186
0.00940808
0.00870598
0.00807085
0.00749493
0.00697141
0.00649433
0.00605844
0.00565913
0.00529238
0.00495464
0.00464282
0.00435419
0.00408639
0.00383737
0.00360534
0.00338881
0.00318654
0.00299759
0.00282135
0.0026576
0.00250659
0.00236916
0.00224682
0.00214171
0.00205673
0.00199547
0.00196221
0.755426
0.298153
0.151116
0.0977552
0.074222
0.0611613
0.052389
0.0457498
0.0403923
0.0359198
0.0321125
0.0288296
0.0259725
0.0234678
0.0212593
0.0193028
0.017563
0.0160111
0.0146234
0.0133799
0.0122638
0.0112602
0.0103564
0.00954101
0.00880405
0.00813671
0.00753115
0.00698043
0.00647841
0.00601967
0.00559942
0.00521343
0.004858
0.00452985
0.00422613
0.00394433
0.00368228
0.00343813
0.00321031
0.00299759
0.00279906
0.00261422
0.00244301
0.00228592
0.00214406
0.00201914
0.00191328
0.00182903
0.00176921
0.0017371
0.771382
0.304044
0.154148
0.09982
0.0758546
0.0625389
0.0535869
0.0468095
0.0413404
0.0367751
0.0328885
0.0295362
0.0266169
0.0240554
0.0217939
0.0197872
0.0179992
0.0164009
0.0149682
0.0136812
0.012523
0.011479
0.0105368
0.009685
0.0089139
0.00821471
0.00757958
0.00700152
0.0064743
0.00599242
0.00555096
0.00514551
0.00477222
0.00442768
0.00410887
0.00381317
0.00353833
0.0032824
0.00304381
0.00282135
0.00261422
0.00242208
0.00224517
0.00208426
0.00194073
0.00181636
0.00171303
0.0016325
0.00157641
0.00154673
0.786282
0.309543
0.156982
0.101753
0.0773831
0.0638276
0.0547065
0.0477991
0.0422257
0.0375741
0.0336142
0.0301984
0.0272227
0.0246099
0.022301
0.0202496
0.0184189
0.0167792
0.0153063
0.0139799
0.0127834
0.0117021
0.0107238
0.00983749
0.0090335
0.00830323
0.00763897
0.00703378
0.00648143
0.00597633
0.00551347
0.00508837
0.00469704
0.00433599
0.00400207
0.00369257
0.00340513
0.00313779
0.00288898
0.0026576
0.00244301
0.00224517
0.00206464
0.00190256
0.00176048
0.00163998
0.00154232
0.00146808
0.0014175
0.00139115
0.800014
0.314608
0.159597
0.103539
0.0787948
0.0650167
0.0557385
0.0487106
0.0430407
0.0383096
0.0342828
0.0308093
0.0277829
0.0251245
0.0227736
0.020683
0.0188149
0.0171391
0.0156309
0.0142699
0.0130392
0.0119244
0.0109132
0.00999489
0.00915996
0.00840005
0.00770763
0.0070759
0.00649872
0.00597053
0.00548631
0.00504155
0.00463219
0.00425462
0.00390563
0.00358241
0.00328262
0.00300429
0.00274593
0.00250659
0.00228592
0.00208426
0.00190256
0.00174224
0.00160477
0.00149119
0.00140165
0.00133538
0.00129121
0.00126853
0.812452
0.319194
0.161968
0.105159
0.0800757
0.0660946
0.0566729
0.049535
0.0437774
0.0389744
0.0348872
0.0313621
0.0282905
0.025592
0.0232046
0.02108
0.0191798
0.0174731
0.0159347
0.014544
0.0132838
0.0121397
0.0110994
0.0101524
0.00928922
0.00850185
0.00778294
0.00712588
0.0065247
0.00597397
0.00546874
0.00500452
0.00457727
0.00418332
0.00381945
0.00348284
0.00317111
0.00288237
0.00261528
0.00236916
0.00214406
0.00194073
0.00176048
0.00160477
0.00147465
0.00137014
0.00129003
0.00123221
0.00119443
0.00117527
0.823449
0.323247
0.164066
0.106594
0.0812096
0.067048
0.0574985
0.0502627
0.044427
0.0395602
0.0354198
0.0318494
0.0287386
0.0260054
0.0235867
0.0214333
0.0195061
0.0177736
0.0162101
0.0147946
0.0135097
0.0123409
0.0112758
0.0103039
0.00941595
0.00860406
0.0078611
0.00718069
0.00655706
0.00598497
0.00545961
0.00497662
0.00453199
0.00412214
0.00374385
0.00339434
0.00307129
0.00277297
0.00249826
0.00224682
0.00201914
0.00181636
0.00163998
0.00149119
0.00137014
0.00127554
0.00120486
0.00115492
0.00112282
0.00110671
0.832827
0.326703
0.165856
0.10782
0.0821776
0.0678611
0.0582018
0.0508818
0.0449792
0.0400578
0.0358721
0.0322633
0.0291194
0.0263571
0.0239124
0.0217354
0.0197861
0.0180326
0.0164489
0.0150135
0.0137088
0.01252
0.0114347
0.0104422
0.00953362
0.00870089
0.00793715
0.00723621
0.00659254
0.00600109
0.00545727
0.00495688
0.00449605
0.00407131
0.00367954
0.00331805
0.00298468
0.00267788
0.00239687
0.00214171
0.00191328
0.00171303
0.00154232
0.00140165
0.00129003
0.00120486
0.00114253
0.00109924
0.0010718
0.00105817
0.840366
0.32948
0.167296
0.108806
0.0829562
0.0685146
0.0587664
0.0513784
0.0454217
0.0404563
0.036234
0.0325944
0.029424
0.0266387
0.0241735
0.021978
0.0200116
0.0182421
0.0166429
0.0151924
0.0138726
0.0126686
0.0115678
0.0105595
0.00963469
0.00878545
0.00800496
0.00728722
0.00662687
0.00601909
0.00545948
0.00494404
0.0044691
0.00403132
0.00362775
0.00325585
0.00291365
0.00259988
0.00231408
0.00205673
0.00182903
0.0016325
0.00146808
0.00133538
0.00123221
0.00115492
0.00109924
0.00106112
0.00103729
0.00102559
0.845786
0.331476
0.168332
0.109515
0.0835161
0.0689842
0.0591718
0.0517346
0.0457388
0.0407416
0.036493
0.0328313
0.029642
0.0268402
0.0243605
0.0221519
0.0201736
0.0183929
0.0167831
0.0153222
0.0139921
0.0127777
0.0116663
0.010647
0.0097109
0.00884999
0.00805754
0.00732762
0.00665502
0.00603507
0.00546356
0.00493667
0.00445088
0.00400305
0.00359037
0.00321048
0.00286162
0.00254277
0.00225379
0.00199547
0.00176921
0.00157641
0.0014175
0.00129121
0.00119443
0.00112282
0.0010718
0.00103729
0.00101604
0.00100581
0.848725
0.332558
0.168893
0.1099
0.0838198
0.0692389
0.0593915
0.0519276
0.0459105
0.0408961
0.0366332
0.0329594
0.0297599
0.0269492
0.0244617
0.0222461
0.0202615
0.0184748
0.0168593
0.015393
0.0140575
0.0128376
0.0117206
0.0106956
0.00975349
0.00888635
0.00808746
0.00735092
0.00667159
0.0060449
0.00546673
0.00493337
0.00444144
0.00398789
0.00357002
0.00318559
0.002833
0.00251137
0.00222079
0.00196221
0.0017371
0.00154673
0.00139115
0.00126853
0.00117527
0.00110671
0.00105817
0.00102559
0.00100581
0.000996584
)
;

boundaryField
{
    bottomWall
    {
        lowReCorrection 0;
        type            epsilonWallFunction;
        value           nonuniform List<scalar> 
50
(
0.0113805
0.0125692
0.0154825
0.0204044
0.0275073
0.0368457
0.0483596
0.0619006
0.0772649
0.0942195
0.112523
0.131941
0.152256
0.173277
0.194839
0.216812
0.23909
0.261593
0.28426
0.307044
0.32991
0.352828
0.375772
0.398718
0.421642
0.444519
0.467321
0.490019
0.512579
0.534966
0.55714
0.579058
0.600672
0.621932
0.642779
0.663154
0.682989
0.702213
0.72075
0.738517
0.755426
0.771382
0.786282
0.800014
0.812452
0.823449
0.832827
0.840366
0.845786
0.848725
)
;
    }
    leftWall
    {
        lowReCorrection 0;
        type            epsilonWallFunction;
        value           nonuniform List<scalar> 
50
(
0.0113805
0.0125692
0.0154825
0.0204044
0.0275073
0.0368457
0.0483596
0.0619006
0.0772649
0.0942195
0.112523
0.131941
0.152256
0.173277
0.194839
0.216812
0.23909
0.261593
0.28426
0.307044
0.32991
0.352828
0.375772
0.398718
0.421642
0.444519
0.467321
0.490019
0.512579
0.534966
0.55714
0.579058
0.600672
0.621932
0.642779
0.663154
0.682989
0.702213
0.72075
0.738517
0.755426
0.771382
0.786282
0.800014
0.812452
0.823449
0.832827
0.840366
0.845786
0.848725
)
;
    }
    topSym
    {
        type            symmetryPlane;
    }
    rightSym
    {
        type            symmetryPlane;
    }
    inlet
    {
        type            cyclic;
    }
    outlet
    {
        type            cyclic;
    }
}


// ************************************************************************* //
