/*--------------------------------*- C++ -*----------------------------------*\
| =========                 |                                                 |
| \\      /  F ield         | OpenFOAM: The Open Source CFD Toolbox           |
|  \\    /   O peration     | Version:  v1912                                 |
|   \\  /    A nd           | Website:  www.openfoam.com                      |
|    \\/     M anipulation  |                                                 |
\*---------------------------------------------------------------------------*/
FoamFile
{
    version     2.0;
    format      ascii;
    class       volSymmTensorField;
    location    "8000";
    object      turbulenceProperties:R;
}
// * * * * * * * * * * * * * * * * * * * * * * * * * * * * * * * * * * * * * //

dimensions      [0 2 -2 0 0 0 0];


internalField   nonuniform List<symmTensor> 
2500
(
(0.000833153 -3.45304e-05 -3.45304e-05 0.000833154 1.52946e-09 0.000833154)
(0.000890206 -2.60346e-05 -8.27011e-05 0.00089021 -4.44544e-10 0.000890204)
(0.00102293 -2.41198e-05 -0.000131026 0.00102294 3.34075e-09 0.00102292)
(0.0012296 -2.38538e-05 -0.000186697 0.00122963 1.55593e-08 0.00122959)
(0.00150054 -2.43454e-05 -0.00025253 0.00150058 4.33461e-08 0.00150052)
(0.00182336 -2.50423e-05 -0.000328874 0.00182342 9.22369e-08 0.00182333)
(0.00218576 -2.56209e-05 -0.000414842 0.00218583 1.58229e-07 0.00218575)
(0.00257678 -2.59171e-05 -0.00050903 0.00257683 2.23217e-07 0.00257681)
(0.00298722 -2.5871e-05 -0.000609877 0.00298724 2.57626e-07 0.00298732)
(0.00340961 -2.54904e-05 -0.000715849 0.00340957 2.28818e-07 0.00340981)
(0.00383799 -2.48182e-05 -0.000825532 0.00383789 1.09733e-07 0.00383832)
(0.00426771 -2.39145e-05 -0.000937673 0.00426755 -1.15641e-07 0.00426816)
(0.00469522 -2.28453e-05 -0.00105122 0.00469502 -4.5072e-07 0.00469582)
(0.00511796 -2.16721e-05 -0.00116531 0.00511772 -8.87971e-07 0.00511869)
(0.00553418 -2.04481e-05 -0.00127929 0.00553392 -1.41233e-06 0.00553504)
(0.00594278 -1.92136e-05 -0.00139268 0.00594251 -2.00495e-06 0.00594377)
(0.00634317 -1.79986e-05 -0.00150513 0.0063429 -2.64636e-06 0.00634429)
(0.00673514 -1.68245e-05 -0.00161641 0.00673488 -3.31877e-06 0.00673638)
(0.00711876 -1.57049e-05 -0.00172641 0.00711851 -4.0073e-06 0.00712013)
(0.00749424 -1.46438e-05 -0.00183506 0.00749401 -4.70048e-06 0.00749575)
(0.00786179 -1.3644e-05 -0.00194229 0.00786157 -5.38998e-06 0.00786344)
(0.00822173 -1.27054e-05 -0.00204811 0.00822153 -6.07049e-06 0.00822353)
(0.00857441 -1.18248e-05 -0.00215249 0.00857423 -6.73874e-06 0.00857636)
(0.00891995 -1.1e-05 -0.00225545 0.00891978 -7.39318e-06 0.00892207)
(0.00925862 -1.0226e-05 -0.00235695 0.00925847 -8.0332e-06 0.00926091)
(0.00959056 -9.49933e-06 -0.00245697 0.00959042 -8.65859e-06 0.00959302)
(0.00991576 -8.81671e-06 -0.00255548 0.00991564 -9.26917e-06 0.0099184)
(0.0102342 -8.17488e-06 -0.00265241 0.0102341 -9.8643e-06 0.0102371)
(0.010546 -7.57081e-06 -0.00274769 0.0105459 -1.04425e-05 0.010549)
(0.0108508 -7.0014e-06 -0.00284128 0.0108507 -1.10015e-05 0.010854)
(0.0111486 -6.46433e-06 -0.00293304 0.0111485 -1.15372e-05 0.011152)
(0.011439 -5.9572e-06 -0.00302287 0.011439 -1.20443e-05 0.0114426)
(0.0117219 -5.47783e-06 -0.00311064 0.0117218 -1.25157e-05 0.0117257)
(0.0119968 -5.02449e-06 -0.00319621 0.0119968 -1.2942e-05 0.0120008)
(0.0122634 -4.59536e-06 -0.00327943 0.0122633 -1.33121e-05 0.0122675)
(0.0125212 -4.18923e-06 -0.00336009 0.0125211 -1.36121e-05 0.0125255)
(0.0127696 -3.80413e-06 -0.00343806 0.0127696 -1.38263e-05 0.0127741)
(0.013008 -3.43883e-06 -0.00351304 0.013008 -1.3937e-05 0.0130127)
(0.0132359 -3.09284e-06 -0.00358485 0.0132359 -1.39249e-05 0.0132408)
(0.0134525 -2.76434e-06 -0.00365325 0.0134526 -1.37691e-05 0.0134575)
(0.0136571 -2.4525e-06 -0.00371794 0.0136571 -1.34482e-05 0.0136622)
(0.0138487 -2.15631e-06 -0.00377866 0.0138487 -1.29413e-05 0.013854)
(0.0140264 -1.87461e-06 -0.00383509 0.0140265 -1.22302e-05 0.0140319)
(0.0141892 -1.60613e-06 -0.00388679 0.0141893 -1.12999e-05 0.0141948)
(0.0143359 -1.34875e-06 -0.00393347 0.014336 -1.01426e-05 0.0143416)
(0.0144649 -1.10053e-06 -0.00397456 0.014465 -8.75559e-06 0.0144707)
(0.0145745 -8.58415e-07 -0.00400951 0.0145747 -7.14683e-06 0.0145804)
(0.0146624 -6.18279e-07 -0.00403754 0.0146625 -5.32734e-06 0.0146683)
(0.0147253 -3.76232e-07 -0.0040576 0.0147254 -3.31781e-06 0.0147313)
(0.0147594 -1.27096e-07 -0.00406852 0.0147595 -1.13506e-06 0.0147654)
(0.000890206 -8.27011e-05 -2.60346e-05 0.000890204 -4.44544e-10 0.00089021)
(0.000804835 -6.72073e-05 -6.72073e-05 0.000804833 -9.87257e-09 0.000804833)
(0.000821541 -6.11476e-05 -0.000106082 0.000821554 -1.57598e-08 0.000821525)
(0.000912822 -5.76162e-05 -0.000146916 0.000912853 -1.88436e-08 0.000912784)
(0.00106038 -5.60686e-05 -0.000193529 0.00106043 -1.68578e-08 0.00106031)
(0.00124972 -5.55757e-05 -0.000247441 0.0012498 -8.5073e-09 0.00124964)
(0.00146904 -5.53486e-05 -0.000308374 0.00146912 1.17378e-09 0.00146896)
(0.00170887 -5.49023e-05 -0.000375229 0.00170891 -1.20286e-09 0.00170882)
(0.00196179 -5.4007e-05 -0.000446677 0.00196176 -3.39397e-08 0.00196181)
(0.00222207 -5.26041e-05 -0.000521432 0.00222194 -1.14004e-07 0.00222218)
(0.0024854 -5.07368e-05 -0.000598356 0.00248516 -2.52758e-07 0.00248561)
(0.00274855 -4.85025e-05 -0.000676496 0.0027482 -4.5457e-07 0.00274885)
(0.00300922 -4.60156e-05 -0.000755091 0.00300879 -7.17398e-07 0.00300959)
(0.00326583 -4.33854e-05 -0.000833561 0.00326534 -1.03442e-06 0.00326625)
(0.00351742 -4.07081e-05 -0.000911487 0.00351689 -1.39597e-06 0.00351785)
(0.00376343 -3.8058e-05 -0.000988585 0.00376289 -1.79131e-06 0.00376385)
(0.00400368 -3.54879e-05 -0.00106468 0.00400315 -2.20996e-06 0.00400407)
(0.00423821 -3.30318e-05 -0.00113968 0.00423769 -2.64258e-06 0.00423854)
(0.00446718 -3.07087e-05 -0.00121356 0.0044667 -3.08149e-06 0.00446745)
(0.00469086 -2.85275e-05 -0.00128629 0.00469041 -3.52074e-06 0.00469105)
(0.00490955 -2.64884e-05 -0.00135792 0.00490913 -3.9561e-06 0.00490966)
(0.00512352 -2.45854e-05 -0.00142847 0.00512314 -4.38476e-06 0.00512354)
(0.00533305 -2.28122e-05 -0.00149797 0.00533271 -4.80506e-06 0.00533298)
(0.00553836 -2.11599e-05 -0.00156643 0.00553804 -5.21613e-06 0.00553819)
(0.00573962 -1.9618e-05 -0.00163389 0.00573934 -5.61769e-06 0.00573936)
(0.005937 -1.81784e-05 -0.00170035 0.00593673 -6.00957e-06 0.00593663)
(0.00613056 -1.68332e-05 -0.0017658 0.00613032 -6.39174e-06 0.00613009)
(0.00632035 -1.55738e-05 -0.00183023 0.00632014 -6.7637e-06 0.00631977)
(0.00650639 -1.4393e-05 -0.00189361 0.00650619 -7.12458e-06 0.0065057)
(0.00668866 -1.32853e-05 -0.0019559 0.00668849 -7.47281e-06 0.00668785)
(0.00686696 -1.22442e-05 -0.00201704 0.00686681 -7.80604e-06 0.00686603)
(0.00704133 -1.12642e-05 -0.00207698 0.0070412 -8.12085e-06 0.00704027)
(0.00721157 -1.03425e-05 -0.00213566 0.00721145 -8.41282e-06 0.00721038)
(0.00737741 -9.47395e-06 -0.00219294 0.00737731 -8.67597e-06 0.00737608)
(0.00753864 -8.65259e-06 -0.00224876 0.00753857 -8.90319e-06 0.00753718)
(0.00769495 -7.87936e-06 -0.00230299 0.0076949 -9.08573e-06 0.00769335)
(0.00784599 -7.1466e-06 -0.00235548 0.00784597 -9.21338e-06 0.00784424)
(0.00799143 -6.45269e-06 -0.00240611 0.00799144 -9.27452e-06 0.00798953)
(0.00813087 -5.79912e-06 -0.00245471 0.00813091 -9.25659e-06 0.00812882)
(0.00826377 -5.17895e-06 -0.0025011 0.00826384 -9.14587e-06 0.00826158)
(0.00838961 -4.59173e-06 -0.00254506 0.00838971 -8.92801e-06 0.00838727)
(0.00850785 -4.03531e-06 -0.00258644 0.00850798 -8.5892e-06 0.00850537)
(0.00861782 -3.5049e-06 -0.00262495 0.00861798 -8.11695e-06 0.0086152)
(0.00871879 -3.00051e-06 -0.00266034 0.00871897 -7.50095e-06 0.00871604)
(0.00880988 -2.51992e-06 -0.0026923 0.0088101 -6.73508e-06 0.00880702)
(0.00889024 -2.05589e-06 -0.00272051 0.00889048 -5.81706e-06 0.00888728)
(0.0089586 -1.603e-06 -0.00274454 0.00895885 -4.75102e-06 0.00895555)
(0.00901342 -1.15366e-06 -0.0027638 0.00901368 -3.54367e-06 0.0090103)
(0.00905277 -7.02422e-07 -0.00277764 0.00905304 -2.20817e-06 0.00904959)
(0.00907411 -2.3781e-07 -0.00278515 0.00907438 -7.55549e-07 0.00907091)
(0.00102293 -0.000131026 -2.41198e-05 0.00102292 3.34075e-09 0.00102294)
(0.000821541 -0.000106082 -6.11476e-05 0.000821525 -1.57598e-08 0.000821554)
(0.000755599 -9.78942e-05 -9.78942e-05 0.0007556 -2.90861e-08 0.0007556)
(0.000780832 -9.29616e-05 -0.000137165 0.000780852 -3.93332e-08 0.000780815)
(0.000869832 -9.03696e-05 -0.000181564 0.000869872 -4.47526e-08 0.000869796)
(0.0010042 -8.93441e-05 -0.000233148 0.00100425 -4.61072e-08 0.00100415)
(0.00117069 -8.89139e-05 -0.000292294 0.00117073 -5.26854e-08 0.00117068)
(0.00135941 -8.83034e-05 -0.000358132 0.00135938 -8.19647e-08 0.00135947)
(0.00156279 -8.70668e-05 -0.000429272 0.00156265 -1.52975e-07 0.00156297)
(0.00177506 -8.50444e-05 -0.000504254 0.00177478 -2.78589e-07 0.00177539)
(0.00199186 -8.22613e-05 -0.000581756 0.00199142 -4.62919e-07 0.00199234)
(0.00220994 -7.88482e-05 -0.000660672 0.00220936 -7.02866e-07 0.00221055)
(0.00242701 -7.49823e-05 -0.000740138 0.00242631 -9.91012e-07 0.00242772)
(0.0026415 -7.08421e-05 -0.000819512 0.00264071 -1.3182e-06 0.00264225)
(0.00285242 -6.65854e-05 -0.000898357 0.00285158 -1.67525e-06 0.00285318)
(0.00305926 -6.2337e-05 -0.000976362 0.00305841 -2.05385e-06 0.00305999)
(0.00326184 -5.81945e-05 -0.00105339 0.003261 -2.44686e-06 0.0032625)
(0.00346019 -5.4223e-05 -0.00112937 0.00345938 -2.84831e-06 0.00346075)
(0.00365448 -5.0448e-05 -0.00120427 0.00365372 -3.25346e-06 0.00365492)
(0.00384495 -4.68901e-05 -0.00127815 0.00384424 -3.65862e-06 0.00384527)
(0.00403189 -4.35599e-05 -0.00135103 0.00403123 -4.06108e-06 0.00403206)
(0.00421555 -4.04513e-05 -0.00142297 0.00421495 -4.45889e-06 0.00421558)
(0.00439619 -3.7548e-05 -0.00149404 0.00439564 -4.85093e-06 0.00439606)
(0.004574 -3.48355e-05 -0.00156427 0.0045735 -5.23641e-06 0.00457372)
(0.00474917 -3.23113e-05 -0.00163369 0.00474871 -5.61493e-06 0.00474873)
(0.0049218 -2.9949e-05 -0.00170229 0.00492139 -5.98614e-06 0.00492121)
(0.005092 -2.77376e-05 -0.00177012 0.00509162 -6.34975e-06 0.00509124)
(0.0052598 -2.56716e-05 -0.00183718 0.00525945 -6.70521e-06 0.00525887)
(0.00542518 -2.37335e-05 -0.0019034 0.00542487 -7.05145e-06 0.00542409)
(0.00558811 -2.19122e-05 -0.00196879 0.00558783 -7.38695e-06 0.00558685)
(0.0057485 -2.02016e-05 -0.00203326 0.00574825 -7.70931e-06 0.00574707)
(0.00590621 -1.85946e-05 -0.00209676 0.005906 -8.01522e-06 0.00590461)
(0.00606108 -1.70784e-05 -0.00215922 0.0060609 -8.3004e-06 0.0060593)
(0.00621288 -1.56491e-05 -0.00222049 0.00621274 -8.55901e-06 0.00621092)
(0.00636135 -1.42988e-05 -0.00228051 0.00636125 -8.78416e-06 0.0063592)
(0.00650616 -1.30221e-05 -0.00233912 0.00650609 -8.96727e-06 0.00650381)
(0.00664693 -1.18163e-05 -0.0023961 0.00664691 -9.09811e-06 0.0066444)
(0.00678323 -1.06772e-05 -0.00245137 0.00678326 -9.16519e-06 0.00678051)
(0.00691468 -9.59657e-06 -0.00250466 0.00691475 -9.15575e-06 0.00691177)
(0.00704066 -8.57291e-06 -0.00255579 0.00704078 -9.0558e-06 0.00703756)
(0.00716057 -7.60511e-06 -0.00260446 0.00716074 -8.8508e-06 0.00715728)
(0.00727375 -6.68514e-06 -0.00265047 0.00727397 -8.52627e-06 0.00727028)
(0.00737953 -5.80933e-06 -0.00269345 0.0073798 -8.069e-06 0.00737588)
(0.00747703 -4.97636e-06 -0.00273309 0.00747735 -7.46787e-06 0.00747322)
(0.0075654 -4.17952e-06 -0.00276905 0.00756576 -6.71578e-06 0.00756144)
(0.00764356 -3.41058e-06 -0.00280084 0.00764396 -5.80928e-06 0.00763948)
(0.00771026 -2.66099e-06 -0.00282798 0.00771068 -4.75156e-06 0.00770606)
(0.00776381 -1.91713e-06 -0.00284977 0.00776425 -3.54871e-06 0.00775953)
(0.00780229 -1.16678e-06 -0.00286548 0.00780275 -2.21328e-06 0.00779796)
(0.00782323 -3.94431e-07 -0.00287396 0.00782369 -7.57402e-07 0.00781887)
(0.0012296 -0.000186697 -2.38538e-05 0.00122959 1.55593e-08 0.00122963)
(0.000912822 -0.000146916 -5.76162e-05 0.000912784 -1.88436e-08 0.000912853)
(0.000780832 -0.000137165 -9.29616e-05 0.000780815 -3.93332e-08 0.000780852)
(0.000769613 -0.000135929 -0.000135929 0.000769614 -5.34822e-08 0.000769614)
(0.000840081 -0.000138301 -0.000188359 0.000840095 -5.76757e-08 0.000840065)
(0.000967356 -0.000141814 -0.00025089 0.000967361 -5.07193e-08 0.000967344)
(0.00113469 -0.000145064 -0.000323331 0.00113464 -5.00267e-08 0.00113473)
(0.00133007 -0.000147107 -0.00040448 0.00132989 -8.91346e-08 0.00133021)
(0.00154446 -0.000147423 -0.000492529 0.00154409 -1.9864e-07 0.00154476)
(0.00177097 -0.000145872 -0.000585544 0.00177036 -3.91558e-07 0.00177145)
(0.00200431 -0.000142584 -0.000681741 0.00200346 -6.63373e-07 0.00200496)
(0.00224055 -0.000137853 -0.000779656 0.00223948 -9.99265e-07 0.00224133)
(0.00247684 -0.000132041 -0.000878144 0.00247559 -1.38142e-06 0.00247769)
(0.00271124 -0.000125505 -0.000976387 0.00270986 -1.7939e-06 0.00271208)
(0.00294252 -0.000118553 -0.00107383 0.00294108 -2.22482e-06 0.00294329)
(0.00317003 -0.000111451 -0.00117012 0.00316857 -2.66618e-06 0.00317067)
(0.00339347 -0.00010442 -0.0012651 0.00339204 -3.11312e-06 0.00339393)
(0.00361285 -9.7563e-05 -0.0013587 0.00361147 -3.56261e-06 0.00361309)
(0.00382831 -9.09856e-05 -0.00145095 0.00382701 -4.01265e-06 0.00382832)
(0.00404013 -8.47427e-05 -0.00154192 0.00403891 -4.46186e-06 0.00403988)
(0.00424857 -7.88445e-05 -0.00163166 0.00424744 -4.90891e-06 0.00424807)
(0.00445394 -7.33114e-05 -0.00172028 0.0044529 -5.35284e-06 0.00445318)
(0.00465648 -6.81214e-05 -0.00180785 0.00465553 -5.79272e-06 0.00465547)
(0.00485644 -6.32547e-05 -0.00189444 0.00485556 -6.22773e-06 0.00485518)
(0.00505397 -5.86953e-05 -0.00198011 0.00505317 -6.65729e-06 0.00505247)
(0.00524921 -5.44293e-05 -0.0020649 0.00524848 -7.08068e-06 0.00524749)
(0.00544225 -5.04367e-05 -0.00214883 0.00544158 -7.49713e-06 0.00544031)
(0.00563311 -4.66884e-05 -0.00223186 0.00563251 -7.90556e-06 0.00563096)
(0.00582178 -4.31621e-05 -0.00231403 0.00582123 -8.30469e-06 0.00581943)
(0.0060082 -3.98528e-05 -0.00239524 0.00600771 -8.69231e-06 0.00600565)
(0.00619224 -3.67437e-05 -0.00247546 0.0061918 -9.06577e-06 0.0061895)
(0.00637374 -3.38108e-05 -0.00255463 0.00637336 -9.42092e-06 0.00637082)
(0.00655248 -3.10466e-05 -0.00263259 0.00655216 -9.75285e-06 0.00654938)
(0.00672818 -2.84443e-05 -0.00270924 0.00672792 -1.00551e-05 0.0067249)
(0.00690048 -2.59845e-05 -0.00278443 0.00690029 -1.03192e-05 0.00689703)
(0.00706905 -2.3655e-05 -0.002858 0.00706893 -1.05356e-05 0.00706542)
(0.00723328 -2.14573e-05 -0.0029297 0.00723324 -1.06921e-05 0.00722948)
(0.00739277 -1.93785e-05 -0.00299932 0.00739282 -1.07751e-05 0.00738881)
(0.00754693 -1.74115e-05 -0.00306659 0.00754707 -1.07698e-05 0.0075428)
(0.00769503 -1.55484e-05 -0.00313125 0.00769525 -1.06594e-05 0.00769073)
(0.00783631 -1.37835e-05 -0.00319291 0.00783663 -1.04263e-05 0.00783185)
(0.00796993 -1.21128e-05 -0.0032512 0.00797034 -1.00531e-05 0.00796532)
(0.00809502 -1.05216e-05 -0.0033058 0.00809552 -9.52371e-06 0.00809026)
(0.00821057 -9.00979e-06 -0.00335622 0.00821115 -8.8239e-06 0.00820568)
(0.00831545 -7.56638e-06 -0.00340197 0.00831611 -7.94441e-06 0.00831044)
(0.00840826 -6.17297e-06 -0.00344249 0.00840899 -6.88031e-06 0.00840315)
(0.00848754 -4.81403e-06 -0.00347707 0.00848832 -5.63404e-06 0.00848234)
(0.00855128 -3.46821e-06 -0.00350489 0.0085521 -4.2123e-06 0.00854602)
(0.00859715 -2.11116e-06 -0.00352489 0.00859799 -2.62885e-06 0.00859186)
(0.00862202 -7.13235e-07 -0.00353573 0.00862287 -8.99534e-07 0.00861671)
(0.00150054 -0.00025253 -2.43454e-05 0.00150052 4.33461e-08 0.00150058)
(0.00106038 -0.000193529 -5.60686e-05 0.00106031 -1.68578e-08 0.00106043)
(0.000869832 -0.000181564 -9.03696e-05 0.000869796 -4.47526e-08 0.000869872)
(0.000840081 -0.000188359 -0.000138301 0.000840065 -5.76757e-08 0.000840095)
(0.000917304 -0.000204112 -0.000204112 0.000917298 -4.78896e-08 0.000917298)
(0.00106732 -0.0002213 -0.000287008 0.00106728 -9.45963e-10 0.00106734)
(0.00126748 -0.000235979 -0.000384435 0.0012673 6.3537e-08 0.0012676)
(0.00150202 -0.00024644 -0.000493412 0.00150157 8.08616e-08 0.00150235)
(0.0017594 -0.000252151 -0.000610857 0.00175858 -1.28294e-08 0.00176)
(0.00203098 -0.000253258 -0.000733912 0.00202975 -2.40767e-07 0.00203189)
(0.00231028 -0.000250313 -0.000860125 0.00230865 -5.88639e-07 0.00231149)
(0.00259255 -0.000244061 -0.000987554 0.00259058 -1.02402e-06 0.00259401)
(0.00287442 -0.000235312 -0.00111477 0.00287217 -1.51227e-06 0.00287603)
(0.00315361 -0.000224821 -0.00124081 0.00315118 -2.02576e-06 0.00315531)
(0.00342873 -0.000213229 -0.00136504 0.00342621 -2.54678e-06 0.00343042)
(0.00369903 -0.0002011 -0.00148717 0.0036965 -3.06656e-06 0.00370065)
(0.00396423 -0.000188834 -0.00160706 0.00396174 -3.58246e-06 0.00396573)
(0.00422437 -0.000176738 -0.00172467 0.00422198 -4.09508e-06 0.00422571)
(0.00447966 -0.000165017 -0.00184015 0.00447739 -4.60606e-06 0.00448081)
(0.00473043 -0.000153773 -0.00195359 0.0047283 -5.11692e-06 0.00473139)
(0.00497703 -0.000143094 -0.00206518 0.00497505 -5.62835e-06 0.0049778)
(0.00521981 -0.000133018 -0.00217502 0.00521799 -6.14036e-06 0.00522042)
(0.00545911 -0.000123531 -0.00228326 0.00545744 -6.65215e-06 0.00545957)
(0.00569519 -0.000114616 -0.00239004 0.00569366 -7.1627e-06 0.00569553)
(0.00592829 -0.000106261 -0.00249545 0.00592689 -7.67048e-06 0.00592854)
(0.00615857 -9.84271e-05 -0.00259956 0.00615729 -8.17407e-06 0.00615874)
(0.00638613 -9.10704e-05 -0.00270241 0.00638497 -8.67159e-06 0.00638626)
(0.00661103 -8.41769e-05 -0.00280399 0.00660997 -9.16116e-06 0.00661113)
(0.00683329 -7.77099e-05 -0.00290434 0.00683233 -9.64048e-06 0.00683338)
(0.00705278 -7.16283e-05 -0.00300342 0.00705193 -1.01067e-05 0.00705289)
(0.00726941 -6.59214e-05 -0.00310114 0.00726865 -1.05562e-05 0.00726954)
(0.00748296 -6.05576e-05 -0.00319743 0.00748231 -1.09841e-05 0.00748313)
(0.00769325 -5.55044e-05 -0.00329221 0.0076927 -1.13841e-05 0.00769346)
(0.00789993 -5.07497e-05 -0.00338529 0.00789949 -1.17491e-05 0.00790018)
(0.00810254 -4.62703e-05 -0.00347649 0.00810222 -1.20693e-05 0.00810284)
(0.00830075 -4.20501e-05 -0.00356568 0.00830056 -1.23332e-05 0.00830109)
(0.00849389 -3.80651e-05 -0.00365256 0.00849384 -1.2527e-05 0.00849427)
(0.00868136 -3.431e-05 -0.00373684 0.00868145 -1.26348e-05 0.00868178)
(0.0088625 -3.07719e-05 -0.00381823 0.00886275 -1.26387e-05 0.00886295)
(0.00903658 -2.74277e-05 -0.00389636 0.00903698 -1.25195e-05 0.00903704)
(0.00920258 -2.42676e-05 -0.00397091 0.00920315 -1.22561e-05 0.00920307)
(0.00935959 -2.12862e-05 -0.00404132 0.00936033 -1.18282e-05 0.00936008)
(0.0095066 -1.84665e-05 -0.00410726 0.0095075 -1.12156e-05 0.0095071)
(0.00964235 -1.57906e-05 -0.00416814 0.0096434 -1.04018e-05 0.00964286)
(0.0097655 -1.32415e-05 -0.00422331 0.00976669 -9.37463e-06 0.00976602)
(0.00987452 -1.07898e-05 -0.00427217 0.00987583 -8.12733e-06 0.00987505)
(0.00996755 -8.40766e-06 -0.00431384 0.00996895 -6.66163e-06 0.0099681)
(0.0100424 -6.05376e-06 -0.00434741 0.0100439 -4.98514e-06 0.010043)
(0.0100962 -3.6817e-06 -0.0043715 0.0100977 -3.11297e-06 0.0100968)
(0.0101253 -1.24349e-06 -0.00438455 0.0101269 -1.06512e-06 0.010126)
(0.00182336 -0.000328874 -2.50423e-05 0.00182333 9.22369e-08 0.00182342)
(0.00124972 -0.000247441 -5.55757e-05 0.00124964 -8.5073e-09 0.0012498)
(0.0010042 -0.000233148 -8.93441e-05 0.00100415 -4.61072e-08 0.00100425)
(0.000967356 -0.00025089 -0.000141814 0.000967344 -5.07193e-08 0.000967361)
(0.00106732 -0.000287008 -0.0002213 0.00106734 -9.45963e-10 0.00106728)
(0.00125766 -0.000327232 -0.000327232 0.00125764 1.5227e-07 0.00125764)
(0.00150756 -0.000362582 -0.00045429 0.00150731 4.07821e-07 0.00150775)
(0.00179611 -0.000389168 -0.000596486 0.00179538 6.61653e-07 0.00179675)
(0.0021087 -0.000406021 -0.000748543 0.00210731 7.84396e-07 0.00210997)
(0.00243493 -0.00041365 -0.000906143 0.00243283 7.14804e-07 0.0024369)
(0.00276735 -0.000413233 -0.00106599 0.00276458 4.61843e-07 0.00277002)
(0.00310077 -0.000406262 -0.00122565 0.00309744 6.91795e-08 0.00310406)
(0.00343164 -0.000394268 -0.00138349 0.00342789 -4.12497e-07 0.00343545)
(0.00375768 -0.000378644 -0.0015384 0.00375366 -9.41094e-07 0.00376192)
(0.0040776 -0.00036061 -0.00168992 0.00407345 -1.48935e-06 0.00408215)
(0.0043908 -0.000341164 -0.00183775 0.00438662 -2.04386e-06 0.00439556)
(0.00469713 -0.000321086 -0.00198189 0.00469303 -2.6011e-06 0.00470203)
(0.00499677 -0.000300945 -0.00212253 0.00499282 -3.1629e-06 0.00500175)
(0.0052901 -0.000281193 -0.00225977 0.00528634 -3.73285e-06 0.00529512)
(0.00557756 -0.000262103 -0.00239395 0.00557403 -4.31378e-06 0.0055826)
(0.00585963 -0.000243813 -0.00252536 0.00585634 -4.90723e-06 0.00586468)
(0.00613678 -0.000226446 -0.00265414 0.00613374 -5.5127e-06 0.00614184)
(0.00640943 -0.000210049 -0.00278058 0.00640662 -6.12854e-06 0.00641451)
(0.00667795 -0.000194607 -0.00290486 0.00667537 -6.7517e-06 0.00668308)
(0.00694252 -0.000180085 -0.00302716 0.00694017 -7.379e-06 0.00694771)
(0.00720356 -0.000166466 -0.00314748 0.00720141 -8.00642e-06 0.00720883)
(0.00746113 -0.000153704 -0.00326606 0.00745917 -8.63026e-06 0.00746649)
(0.00771524 -0.000141741 -0.0033829 0.00771346 -9.2468e-06 0.00772071)
(0.00796607 -0.000130525 -0.00349801 0.00796447 -9.85179e-06 0.00797166)
(0.00821344 -0.000120009 -0.00361136 0.008212 -1.04409e-05 0.00821916)
(0.00845734 -0.000110154 -0.00372301 0.00845607 -1.10094e-05 0.00846319)
(0.00869757 -0.000100915 -0.00383277 0.00869648 -1.15512e-05 0.00870355)
(0.00893381 -9.22472e-05 -0.00394062 0.00893289 -1.20594e-05 0.0089399)
(0.00916571 -8.4109e-05 -0.00404634 0.00916498 -1.2525e-05 0.00917191)
(0.00939301 -7.64819e-05 -0.00414983 0.00939248 -1.29378e-05 0.00939931)
(0.00961505 -6.93143e-05 -0.00425083 0.00961473 -1.32848e-05 0.00962143)
(0.00983128 -6.25774e-05 -0.00434911 0.00983119 -1.35514e-05 0.00983772)
(0.0100411 -5.62517e-05 -0.00444439 0.0100412 -1.37203e-05 0.0100475)
(0.0102436 -5.03059e-05 -0.00453624 0.010244 -1.37704e-05 0.0102501)
(0.0104381 -4.47283e-05 -0.00462437 0.0104388 -1.36812e-05 0.0104446)
(0.0106235 -3.94829e-05 -0.00470834 0.0106244 -1.34298e-05 0.0106299)
(0.0107988 -3.45509e-05 -0.00478769 0.0108 -1.29924e-05 0.0108052)
(0.0109627 -2.99089e-05 -0.00486186 0.0109642 -1.23474e-05 0.0109691)
(0.0111141 -2.55182e-05 -0.00493032 0.0111158 -1.14753e-05 0.0111204)
(0.0112514 -2.13597e-05 -0.00499236 0.0112534 -1.03618e-05 0.0112577)
(0.0113729 -1.73813e-05 -0.00504722 0.011375 -8.99873e-06 0.0113791)
(0.0114765 -1.35266e-05 -0.00509403 0.0114788 -7.3871e-06 0.0114827)
(0.0115599 -9.73109e-06 -0.00513161 0.0115623 -5.5352e-06 0.011566)
(0.0116197 -5.91207e-06 -0.00515868 0.0116222 -3.46007e-06 0.0116259)
(0.0116522 -1.99402e-06 -0.00517331 0.0116547 -1.18439e-06 0.0116583)
(0.00218576 -0.000414842 -2.56209e-05 0.00218575 1.58229e-07 0.00218583)
(0.00146904 -0.000308374 -5.53486e-05 0.00146896 1.17378e-09 0.00146912)
(0.00117069 -0.000292294 -8.89139e-05 0.00117068 -5.26854e-08 0.00117073)
(0.00113469 -0.000323331 -0.000145064 0.00113473 -5.00267e-08 0.00113464)
(0.00126748 -0.000384435 -0.000235979 0.0012676 6.3537e-08 0.0012673)
(0.00150756 -0.00045429 -0.000362582 0.00150775 4.07821e-07 0.00150731)
(0.00181401 -0.000517579 -0.000517579 0.00181402 1.02191e-06 0.00181402)
(0.00216003 -0.000567145 -0.000691753 0.00215939 1.74885e-06 0.00216076)
(0.00252795 -0.000601061 -0.00087713 0.00252627 2.36351e-06 0.00252978)
(0.00290605 -0.000620003 -0.0010677 0.00290319 2.74169e-06 0.00290917)
(0.00328658 -0.00062581 -0.00125917 0.00328261 2.86716e-06 0.00329097)
(0.00366445 -0.000620713 -0.00144869 0.00365954 2.77626e-06 0.00366997)
(0.00403646 -0.000606979 -0.00163443 0.00403085 2.52187e-06 0.00404294)
(0.00440075 -0.000586785 -0.00181533 0.00439467 2.15401e-06 0.00440798)
(0.00475639 -0.000561999 -0.0019909 0.00475005 1.7097e-06 0.00476419)
(0.0051031 -0.000534143 -0.002161 0.00509668 1.21097e-06 0.00511129)
(0.00544102 -0.000504585 -0.00232583 0.00543467 6.6786e-07 0.00544947)
(0.00577058 -0.000474285 -0.00248562 0.00576442 8.30686e-08 0.00577916)
(0.00609233 -0.000443996 -0.00264085 0.00608644 -5.43698e-07 0.00610095)
(0.0064069 -0.000414331 -0.00279176 0.00640133 -1.21247e-06 0.0064155)
(0.0067149 -0.000385596 -0.00293877 0.00670968 -1.92168e-06 0.00672342)
(0.00701695 -0.000358058 -0.00308232 0.00701209 -2.66756e-06 0.00702536)
(0.00731347 -0.000331891 -0.00322262 0.00730898 -3.44451e-06 0.00732175)
(0.00760506 -0.000307121 -0.00336003 0.00760093 -4.24544e-06 0.00761321)
(0.00789193 -0.000283742 -0.00349469 0.00788814 -5.06286e-06 0.00789993)
(0.00817453 -0.000261776 -0.00362688 0.00817107 -5.88901e-06 0.00818239)
(0.00845295 -0.000241184 -0.0037567 0.0084498 -6.71571e-06 0.00846066)
(0.00872736 -0.000221872 -0.00388428 0.00872451 -7.53644e-06 0.00873493)
(0.00899785 -0.000203778 -0.00400965 0.00899528 -8.344e-06 0.00900527)
(0.00926441 -0.000186856 -0.00413288 0.00926211 -9.13144e-06 0.00927168)
(0.0095269 -0.000171036 -0.00425391 0.00952488 -9.89162e-06 0.00953401)
(0.00978527 -0.000156232 -0.00437278 0.00978353 -1.06176e-05 0.0097922)
(0.0100392 -0.000142385 -0.00448933 0.0100377 -1.1301e-05 0.0100459)
(0.0102883 -0.000129434 -0.00460349 0.0102871 -1.19322e-05 0.0102948)
(0.0105322 -0.000117332 -0.00471509 0.0105314 -1.24995e-05 0.0105386)
(0.0107705 -0.000106015 -0.0048238 0.01077 -1.29902e-05 0.0107765)
(0.0110024 -9.54292e-05 -0.00492954 0.0110022 -1.33886e-05 0.0110082)
(0.0112273 -8.55276e-05 -0.00503189 0.0112274 -1.36765e-05 0.0112327)
(0.0114443 -7.62715e-05 -0.00513058 0.0114449 -1.38326e-05 0.0114494)
(0.0116526 -6.76195e-05 -0.0052252 0.0116536 -1.38349e-05 0.0116574)
(0.0118512 -5.95255e-05 -0.00531524 0.0118526 -1.36599e-05 0.0118556)
(0.0120389 -5.19556e-05 -0.00540034 0.0120407 -1.32822e-05 0.0120429)
(0.0122145 -4.48667e-05 -0.00547976 0.0122167 -1.26789e-05 0.0122181)
(0.0123765 -3.82055e-05 -0.00555309 0.012379 -1.18296e-05 0.0123797)
(0.0125233 -3.19106e-05 -0.00561955 0.0125262 -1.07177e-05 0.0125262)
(0.0126532 -2.59175e-05 -0.00567824 0.0126565 -9.33498e-06 0.0126559)
(0.0127641 -2.01373e-05 -0.00572837 0.0127676 -7.6822e-06 0.0127665)
(0.0128532 -1.44702e-05 -0.00576852 0.0128568 -5.76781e-06 0.0128554)
(0.0129172 -8.78791e-06 -0.00579745 0.0129209 -3.61148e-06 0.0129193)
(0.0129518 -2.96187e-06 -0.00581314 0.0129557 -1.23739e-06 0.0129539)
(0.00257678 -0.00050903 -2.59171e-05 0.00257681 2.23217e-07 0.00257683)
(0.00170887 -0.000375229 -5.49023e-05 0.00170882 -1.20286e-09 0.00170891)
(0.00135941 -0.000358132 -8.83034e-05 0.00135947 -8.19647e-08 0.00135938)
(0.00133007 -0.00040448 -0.000147107 0.00133021 -8.91346e-08 0.00132989)
(0.00150202 -0.000493412 -0.00024644 0.00150235 8.08616e-08 0.00150157)
(0.00179611 -0.000596486 -0.000389168 0.00179675 6.61653e-07 0.00179538)
(0.00216003 -0.000691753 -0.000567145 0.00216076 1.74885e-06 0.00215939)
(0.00256086 -0.000768367 -0.000768367 0.00256097 3.09612e-06 0.00256097)
(0.00297842 -0.000823312 -0.00098217 0.00297719 4.35282e-06 0.00297994)
(0.00340046 -0.000857486 -0.00120076 0.00339751 5.33807e-06 0.00340377)
(0.00381959 -0.000873278 -0.00141899 0.0038149 6.02633e-06 0.00382475)
(0.00423143 -0.000873598 -0.00163359 0.00422519 6.44786e-06 0.00423826)
(0.00463356 -0.000861333 -0.00184261 0.0046261 6.64358e-06 0.00464176)
(0.00502482 -0.000839127 -0.00204508 0.00501646 6.65227e-06 0.00503404)
(0.00540485 -0.000809399 -0.00224048 0.00539593 6.5057e-06 0.00541476)
(0.00577383 -0.000774307 -0.00242892 0.00576464 6.22624e-06 0.00578415)
(0.00613227 -0.000735581 -0.0026106 0.00612305 5.82755e-06 0.00614277)
(0.00648086 -0.000694707 -0.00278587 0.0064718 5.31775e-06 0.00649134)
(0.00682035 -0.000652887 -0.00295528 0.00681159 4.70237e-06 0.00683066)
(0.00715165 -0.000610978 -0.00311927 0.00714328 3.98727e-06 0.00716167)
(0.00747535 -0.00056978 -0.00327825 0.00746745 3.18052e-06 0.007485)
(0.00779226 -0.000529762 -0.00343283 0.00778486 2.29206e-06 0.00780148)
(0.00810304 -0.000491268 -0.00358336 0.00809617 1.3345e-06 0.0081118)
(0.00840809 -0.000454523 -0.00373017 0.00840174 3.21551e-07 0.00841637)
(0.00870789 -0.000419617 -0.00387352 0.00870205 -7.32051e-07 0.00871566)
(0.00900289 -0.00038668 -0.00401388 0.00899755 -1.8126e-06 0.00901016)
(0.00929337 -0.000355675 -0.0041513 0.0092885 -2.906e-06 0.00930013)
(0.00957938 -0.000326547 -0.00428592 0.00957497 -3.99993e-06 0.00958564)
(0.00986114 -0.000299251 -0.004418 0.00985717 -5.08201e-06 0.00986689)
(0.0101387 -0.000273706 -0.00454755 0.0101352 -6.1421e-06 0.0101439)
(0.0104119 -0.000249848 -0.0046745 0.0104088 -7.1689e-06 0.0104167)
(0.0106807 -0.000227587 -0.00479902 0.010678 -8.15411e-06 0.0106849)
(0.0109449 -0.000206816 -0.00492092 0.0109426 -9.08553e-06 0.0109485)
(0.011204 -0.000187456 -0.00504017 0.0112022 -9.95337e-06 0.0112072)
(0.0114578 -0.000169403 -0.00515667 0.0114564 -1.07455e-05 0.0114604)
(0.0117056 -0.000152589 -0.00527013 0.0117048 -1.14481e-05 0.0117076)
(0.0119469 -0.000136939 -0.00538034 0.0119466 -1.20455e-05 0.0119483)
(0.012181 -0.000122359 -0.00548698 0.0121811 -1.25178e-05 0.0121817)
(0.0124069 -0.000108794 -0.00558975 0.0124076 -1.28464e-05 0.0124069)
(0.0126238 -9.61694e-05 -0.00568827 0.0126251 -1.30069e-05 0.0126232)
(0.0128305 -8.44279e-05 -0.00578201 0.0128324 -1.29763e-05 0.0128292)
(0.013026 -7.34925e-05 -0.00587052 0.0130284 -1.2731e-05 0.013024)
(0.0132088 -6.33009e-05 -0.00595328 0.0132118 -1.22444e-05 0.0132062)
(0.0133775 -5.37798e-05 -0.00602955 0.0133811 -1.1498e-05 0.0133743)
(0.0135306 -4.48226e-05 -0.0060986 0.0135347 -1.0474e-05 0.0135268)
(0.013666 -3.63437e-05 -0.00615968 0.0136705 -9.16505e-06 0.0136617)
(0.0137814 -2.81953e-05 -0.00621177 0.0137863 -7.57074e-06 0.0137767)
(0.0138742 -2.02312e-05 -0.00625366 0.0138793 -5.70088e-06 0.0138692)
(0.0139408 -1.22801e-05 -0.00628368 0.0139461 -3.5776e-06 0.0139356)
(0.013977 -4.13844e-06 -0.00629996 0.0139823 -1.22727e-06 0.0139717)
(0.00298722 -0.000609877 -2.5871e-05 0.00298732 2.57626e-07 0.00298724)
(0.00196179 -0.000446677 -5.4007e-05 0.00196181 -3.39397e-08 0.00196176)
(0.00156279 -0.000429272 -8.70668e-05 0.00156297 -1.52975e-07 0.00156265)
(0.00154446 -0.000492529 -0.000147423 0.00154476 -1.9864e-07 0.00154409)