/*--------------------------------*- C++ -*----------------------------------*\
| =========                 |                                                 |
| \\      /  F ield         | OpenFOAM: The Open Source CFD Toolbox           |
|  \\    /   O peration     | Version:  v1912                                 |
|   \\  /    A nd           | Website:  www.openfoam.com                      |
|    \\/     M anipulation  |                                                 |
\*---------------------------------------------------------------------------*/
FoamFile
{
    version     2.0;
    format      ascii;
    class       volTensorField;
    location    "9000";
    object      grad(U);
}
// * * * * * * * * * * * * * * * * * * * * * * * * * * * * * * * * * * * * * //

dimensions      [0 0 -1 0 0 0 0];


internalField   nonuniform List<tensor> 
2500
(
(0 0 0 0.530894 -5.31693e-06 -1.17579e-05 0.530894 -1.17579e-05 -5.31695e-06)
(-1.60729e-18 1.22627e-23 4.90507e-23 0.422249 -2.79473e-05 -1.80072e-05 1.34131 2.52169e-05 1.83699e-05)
(0 0 0 0.395196 -9.60215e-05 -2.79852e-05 2.14682 -2.67521e-05 6.02333e-05)
(-5.68921e-18 6.94484e-22 3.47242e-22 0.37828 -0.000192628 -3.87937e-05 2.9607 -0.000207951 0.000127128)
(-5.35181e-18 0 3.26648e-22 0.365144 -0.000310557 -5.91022e-05 3.7876 -0.000591027 0.000197562)
(-1.00688e-17 2.45821e-21 0 0.352384 -0.000403247 -9.27415e-05 4.62777 -0.00120518 0.000215298)
(0 0 -1.15621e-21 0.338361 -0.000411892 -0.000136708 5.47858 -0.00195294 0.000112587)
(0 0 0 0.322572 -0.000301179 -0.000182227 6.33553 -0.002596 -0.000154984)
(0 0 0 0.305138 -7.78227e-05 -0.000220247 7.19327 -0.00281835 -0.000584731)
(0 0 0 0.286516 0.000216754 -0.000246176 8.04625 -0.00232578 -0.00113492)
(0 0 0 0.267248 0.000528379 -0.000260027 8.88949 -0.000921606 -0.00174841)
(-1.3954e-17 1.70337e-21 0 0.247865 0.000809497 -0.000264444 9.71865 0.00146302 -0.00237351)
(0 0 0 0.22885 0.00102929 -0.000262774 10.5304 0.00477779 -0.00297516)
(-1.2348e-17 -1.20586e-20 0 0.210575 0.00117526 -0.000257873 11.3226 0.00888572 -0.00353712)
(-2.32313e-17 0 0 0.193304 0.00124949 -0.000251646 12.0936 0.013603 -0.00405827)
(0 2.13414e-20 -1.06707e-20 0.177185 0.00126303 -0.00024512 12.8431 0.0187345 -0.00454689)
(-2.05575e-17 0 0 0.162284 0.00123074 -0.000238687 13.571 0.0240995 -0.00501542)
(-1.93383e-17 -7.55404e-20 1.88851e-20 0.148616 0.00116758 -0.000232382 14.2778 0.029547 -0.0054765)
(0 -3.55302e-20 1.77651e-20 0.136128 0.0010865 -0.000226111 14.9643 0.0349607 -0.00594087)
(0 0 0 0.124733 0.000997586 -0.000219719 15.6314 0.0402592 -0.00641649)
(0 0 0 0.114362 0.000907926 -0.000213094 16.28 0.0453912 -0.00690828)
(-3.02861e-17 -1.18305e-19 0 0.104908 0.000822047 -0.000206172 16.9112 0.0503299 -0.00741878)
(0 0 0 0.0962815 0.000742428 -0.000198933 17.5256 0.0550657 -0.00794841)
(0 0 0 0.0883928 0.000670099 -0.000191399 18.1241 0.0596005 -0.00849622)
(0 0 0 0.0811602 0.000605038 -0.0001836 18.7072 0.063943 -0.00906028)
(0 -9.26395e-20 4.63198e-20 0.0745238 0.000546522 -0.000175594 19.2754 0.0681037 -0.00963804)
(6.69277e-17 2.61436e-19 -2.17864e-20 0.0684155 0.000493613 -0.000167433 19.829 0.0720906 -0.0102267)
(0 0 0 0.0627762 0.000445193 -0.000159175 20.3682 0.0759084 -0.0108233)
(0 0 -3.85577e-20 0.0575649 0.00040004 -0.000150871 20.8933 0.0795548 -0.0114249)
(-3.71415e-17 -1.45084e-19 0 0.0527432 0.000357002 -0.000142563 21.4041 0.0830191 -0.0120284)
(0 0 0 0.0482679 0.000315059 -0.000134294 21.9005 0.0862803 -0.0126311)
(0 1.28386e-19 0 0.0441091 0.000273257 -0.000126092 22.3824 0.0893065 -0.0132301)
(0 0 0 0.0402377 0.000230845 -0.000117987 22.8493 0.0920525 -0.0138226)
(0 0 0 0.0366297 0.000187202 -0.000109996 23.3011 0.0944604 -0.0144062)
(-5.47182e-17 0 0 0.0332641 0.000141749 -0.00010214 23.7371 0.0964576 -0.014978)
(-2.57365e-17 -2.01067e-19 5.02666e-20 0.0301179 9.42176e-05 -9.44341e-05 24.157 0.0979563 -0.0155357)
(0 0 0 0.0271728 4.45627e-05 -8.68936e-05 24.5597 0.098855 -0.0160768)
(0 0 8.89624e-20 0.0244176 -7.022e-06 -7.9531e-05 24.9445 0.0990401 -0.0165991)
(4.28474e-17 0 0 0.0218372 -6.02994e-05 -7.23507e-05 25.311 0.0983896 -0.0171002)
(0 0 0 0.0194148 -0.000114784 -6.53635e-05 25.6579 0.0967701 -0.0175781)
(0 0 7.40545e-20 0.0171403 -0.000169617 -5.85803e-05 25.9843 0.0940465 -0.0180306)
(-3.56673e-17 -1.39325e-19 0 0.0150032 -0.00022361 -5.2004e-05 26.2891 0.0900878 -0.0184561)
(0 0 0 0.0129881 -0.000275352 -4.56287e-05 26.571 0.0847811 -0.0188528)
(0 2.46579e-19 0 0.011085 -0.000323134 -3.94445e-05 26.8282 0.0780361 -0.0192188)
(-2.96903e-17 0 5.79889e-20 0.00927946 -0.000365414 -3.34212e-05 27.0594 0.0698074 -0.0195521)
(0 0 0 0.00754885 -0.000400618 -2.7516e-05 27.2624 0.0600841 -0.0198496)
(0 0 0 0.0058726 -0.000427932 -2.16555e-05 27.4346 0.0489229 -0.0201071)
(-4.943e-17 -4.82714e-20 4.82714e-20 0.00422309 -0.000447075 -1.57586e-05 27.5722 0.036396 -0.0203179)
(0 0 0 0.00256576 -0.000458639 -8.9929e-06 27.6709 0.0226347 -0.0204735)
(0 0 0 0.000865242 -0.000464657 -2.59573e-06 27.7242 0.00773722 -0.0205262)
(1.60729e-18 -4.90507e-23 -1.22627e-23 1.34131 1.83699e-05 2.52169e-05 0.422249 -1.80072e-05 -2.79473e-05)
(0 0 0 1.11928 1.77971e-05 8.221e-05 1.11928 8.22099e-05 1.77971e-05)
(5.68921e-18 8.68105e-23 1.04173e-21 1.05783 -0.000107156 0.000128326 1.83518 0.000144313 0.000137807)
(1.07036e-17 0 0 1.00641 -0.000274454 0.000159066 2.56623 0.00017008 0.000327932)
(0 2.45821e-21 0 0.958065 -0.000469661 0.000135348 3.30691 0.000152707 0.000548928)
(1.89434e-17 -4.62485e-21 4.62485e-21 0.910026 -0.000603057 3.68181e-05 4.05179 0.000102485 0.000699176)
(-1.78199e-17 4.35056e-21 0 0.860842 -0.00055855 -0.000115741 4.79618 9.74865e-05 0.000664627)
(0 0 0 0.810006 -0.000270365 -0.000271818 5.5359 0.000289564 0.000386569)
(0 1.53993e-20 0 0.75776 0.000239828 -0.000383354 6.26722 0.000859556 -0.000105693)
(-2.96675e-17 0 1.81076e-21 0.704843 0.000881558 -0.000429538 6.98677 0.0019571 -0.000717469)
(-2.7908e-17 0 3.40674e-21 0.652199 0.00154216 -0.000416632 7.69159 0.00366572 -0.00133419)
(-2.62529e-17 -6.4094e-21 6.4094e-21 0.600774 0.00212532 -0.000365162 8.37938 0.00599567 -0.00185864)
(0 0 0 0.551417 0.0025702 -0.000297584 9.04847 0.00889434 -0.00222953)
(4.64627e-17 4.53737e-20 -1.13434e-20 0.504755 0.00285376 -0.000231089 9.69783 0.0122657 -0.00242348)
(-4.37072e-17 -8.53655e-20 0 0.461223 0.00298273 -0.000175491 10.327 0.0159916 -0.00244673)
(0 0 -1.00379e-20 0.421017 0.00298203 -0.000134306 10.9361 0.0199504 -0.00232354)
(7.73534e-17 1.51081e-19 -1.88851e-20 0.384159 0.00288424 -0.000106893 11.5254 0.0240302 -0.00208554)
(-3.63829e-17 -1.42121e-19 8.88255e-21 0.350571 0.00272177 -9.05705e-05 12.0958 0.0281371 -0.00176425)
(0 1.33692e-19 -1.67115e-20 0.320059 0.00252264 -8.21229e-05 12.648 0.0321982 -0.00138677)
(-6.43909e-17 0 1.57204e-20 0.29237 0.00230865 -7.85944e-05 13.1829 0.0361616 -0.000973974)
(0 0 0 0.267261 0.00209511 -7.76952e-05 13.7013 0.0399944 -0.000540589)
(0 0 -1.39111e-20 0.244472 0.00189179 -7.78171e-05 14.2041 0.043678 -9.58542e-05)
(0 -2.09377e-19 0 0.223744 0.00170385 -7.79337e-05 14.6922 0.0472061 0.000355082)
(0 1.9696e-19 -2.462e-20 0.204863 0.0015334 -7.74975e-05 15.166 0.0505792 0.000810188)
(-4.74314e-17 -1.85279e-19 2.31599e-20 0.187625 0.00138032 -7.62684e-05 15.626 0.0538022 0.00126929)
(0 0 0 0.17184 0.00124291 -7.42101e-05 16.0731 0.0568814 0.00173341)
(0 0 0 0.157356 0.00111882 -7.13973e-05 16.5069 0.0598222 0.00220409)
(0 0 0 0.144042 0.00100542 -6.79509e-05 16.9282 0.0626269 0.002683)
(0 0 -1.81355e-20 0.131778 0.000899942 -6.40204e-05 17.3369 0.065293 0.00317169)
(6.98776e-17 5.45919e-19 -1.706e-20 0.120451 0.000799737 -5.97543e-05 17.7332 0.067812 0.00367135)
(0 0 0 0.109976 0.000702361 -5.52782e-05 18.117 0.0701682 0.00418282)
(-6.18351e-17 -2.41543e-19 0 0.100268 0.000605626 -5.06996e-05 18.488 0.0723376 0.00470643)
(-1.16336e-16 -9.08873e-19 2.84023e-20 0.0912664 0.000507667 -4.61168e-05 18.8464 0.0742864 0.00524205)
(-1.09436e-16 0 -2.67179e-20 0.0829128 0.000406995 -4.16061e-05 19.1919 0.0759707 0.00578898)
(0 0 0 0.0751425 0.000302388 -3.72302e-05 19.524 0.0773358 0.00634597)
(9.68408e-17 0 0 0.0678898 0.000193078 -3.30504e-05 19.8425 0.0783158 0.00691122)
(0 0 0 0.0611081 7.88731e-05 -2.9119e-05 20.147 0.0788332 0.00748207)
(0 0 0 0.0548078 -3.97819e-05 -2.54589e-05 20.437 0.0788013 0.00805513)
(0 0 0 0.0489311 -0.000162277 -2.20826e-05 20.7121 0.0781262 0.00862657)
(0 0 0 0.043425 -0.0002876 -1.90237e-05 20.9714 0.0767063 0.00919185)
(-1.42669e-16 -5.57301e-19 3.48313e-20 0.0382749 -0.000413821 -1.63091e-05 21.2147 0.0744369 0.0097453)
(-1.34208e-16 -5.2425e-19 9.82969e-20 0.033452 -0.000538162 -1.3946e-05 21.4411 0.0712168 0.0102804)
(0 -4.93159e-19 6.16449e-20 0.0289073 -0.000657393 -1.1919e-05 21.6498 0.066958 0.0107896)
(0 0 0 0.0246323 -0.000767638 -1.0197e-05 21.8397 0.0615883 0.0112649)
(1.11718e-16 0 0 0.0206007 -0.000865305 -8.71469e-06 22.01 0.055069 0.0116975)
(0 0 0 0.0167456 -0.000946789 -7.3865e-06 22.159 0.0473884 0.012079)
(0 0 0 0.0130161 -0.00101019 -6.08279e-06 22.2852 0.0385837 0.0124008)
(0 0 0 0.00935316 -0.00105473 -4.69876e-06 22.386 0.0287074 0.0126553)
(0 0 0 0.00567982 -0.00108184 -2.03325e-06 22.4581 0.0178558 0.0128343)
(1.64587e-16 2.00912e-20 0 0.00191264 -0.00109599 -4.13991e-08 22.4971 0.00610302 0.0129238)
(0 0 0 2.14682 6.02333e-05 -2.67521e-05 0.395196 -2.79852e-05 -9.60215e-05)
(-5.68921e-18 -1.04173e-21 -4.34052e-23 1.83518 0.000137807 0.000144313 1.05783 0.000128326 -0.000107156)
(2.14072e-17 6.53297e-22 6.53297e-22 1.75701 -8.97757e-06 0.000261019 1.75701 0.000261019 -8.97757e-06)
(0 0 0 1.6818 -0.000178604 0.000323142 2.4815 0.000388444 0.000155139)
(-1.89434e-17 0 0 1.60326 -0.000357706 0.000249269 3.22114 0.000544692 0.000321162)
(0 0 0 1.52019 -0.00043637 -2.89299e-06 3.96701 0.000787408 0.00035784)
(0 0 0 1.43321 -0.000265073 -0.000369906 4.71151 0.00121915 0.000115737)
(0 0 0 1.34349 0.000233331 -0.000722505 5.44883 0.00196957 -0.000460725)
(0 0 0 1.25239 0.00101253 -0.000949845 6.17468 0.00315025 -0.00129536)
(-5.5816e-17 -3.40674e-21 0 1.16135 0.00193795 -0.00101155 6.88599 0.00481591 -0.0022343)
(0 0 0 1.07188 0.0028561 -0.000930822 7.58048 0.00696282 -0.00311551)
(-4.93919e-17 -4.82343e-20 3.61757e-20 0.985396 0.00364332 -0.000761852 8.25661 0.00954577 -0.00381347)
(0 0 -2.26869e-20 0.903014 0.00422582 -0.000560824 8.91342 0.0124955 -0.00425648)
(0 0 0 0.825581 0.00457927 -0.000369725 9.55045 0.0157318 -0.00442441)
(-8.22301e-17 -1.60606e-19 0 0.753614 0.00471732 -0.00021197 10.1677 0.0191726 -0.00433558)
(0 0 0 0.687304 0.00467625 -9.53366e-05 10.7651 0.0227406 -0.00403076)
(0 -1.42121e-19 3.55302e-20 0.626668 0.00450145 -1.74553e-05 11.3434 0.0263665 -0.00355931)
(-1.36901e-16 -2.67384e-19 3.3423e-20 0.571498 0.00423799 2.90221e-05 11.9033 0.0299915 -0.00296944)
(0 0 0 0.521342 0.00392471 5.27425e-05 12.4452 0.0335692 -0.00230258)
(0 0 0 0.475826 0.00359196 6.15767e-05 12.9703 0.0370648 -0.00159114)
(-1.1396e-16 -2.22577e-19 2.78222e-20 0.434587 0.0032612 6.1757e-05 13.4791 0.0404546 -0.000858495)
(1.07201e-16 0 -2.61722e-20 0.397188 0.00294625 5.76948e-05 13.9722 0.0437239 -0.000119988)
(0 0 0 0.363162 0.00265475 5.22496e-05 14.4502 0.0468654 0.000615202)
(0 0 0 0.332127 0.00238958 4.70777e-05 14.914 0.0498778 0.00134251)
(-8.92369e-17 -3.48582e-19 2.17864e-20 0.303867 0.00215052 4.29926e-05 15.3637 0.0527617 0.00206056)
(0 -6.55817e-19 2.04943e-20 0.27797 0.00193528 4.0275e-05 15.7997 0.0555196 0.00276982)
(0 -3.08462e-19 1.92789e-20 0.254203 0.00174046 3.88906e-05 16.2225 0.0581536 0.00347189)
(0 0 0 0.232404 0.00156205 3.86371e-05 16.6319 0.0606633 0.00416879)
(0 0 0 0.212326 0.00139588 3.9244e-05 17.0283 0.0630444 0.00486255)
(0 0 0 0.193813 0.0012379 4.04448e-05 17.4115 0.0652882 0.00555501)
(-1.2367e-16 0 1.50964e-20 0.176672 0.00108442 4.19833e-05 17.7817 0.0673791 0.00624764)
(-1.16336e-16 0 0 0.160834 0.000932047 4.36436e-05 18.1387 0.0692945 0.00694145)
(0 0 0 0.146187 0.00077785 4.52409e-05 18.4823 0.071004 0.00763686)
(-1.02946e-16 -4.02133e-19 1.25667e-20 0.132583 0.000619435 4.66255e-05 18.8124 0.0724671 0.00833387)
(0 -7.56568e-19 2.36428e-20 0.119938 0.000454924 4.76767e-05 19.1289 0.0736338 0.00903174)
(-1.82195e-16 -7.11699e-19 0 0.108176 0.000283036 4.82757e-05 19.4311 0.0744437 0.00972913)
(0 0 0 0.0972443 0.00010337 4.83112e-05 19.719 0.0748259 0.0104238)
(0 0 0 0.0870789 -8.34391e-05 4.77538e-05 19.9924 0.0747001 0.0111123)
(0 0 0 0.0775894 -0.000276468 4.66019e-05 20.2506 0.0739789 0.0117908)
(0 5.57301e-19 -8.70783e-21 0.0687406 -0.000474062 4.47942e-05 20.4932 0.0725677 0.0124552)
(0 5.2425e-19 -8.19141e-21 0.0605021 -0.00067325 4.22757e-05 20.7198 0.0703698 0.0130994)
(0 -4.93159e-19 0 0.0527902 -0.000869665 3.90427e-05 20.9298 0.0672899 0.0137163)
(1.18761e-16 4.63912e-19 0 0.0455584 -0.00105829 3.51412e-05 21.1227 0.0632443 0.0142978)
(0 0 0 0.0387787 -0.00123304 3.06553e-05 21.298 0.0581634 0.0148348)
(0 8.21035e-19 -3.20717e-21 0.0323825 -0.00138818 2.57383e-05 21.4544 0.0520076 0.0153179)
(0 0 0 0.0262915 -0.00151804 2.05834e-05 21.5911 0.044762 0.0157382)
(0 0 0 0.0204247 -0.00161949 1.54563e-05 21.7064 0.0364555 0.0160873)
(1.74963e-16 0 0 0.0146645 -0.0016912 1.05488e-05 21.7984 0.027134 0.0163592)
(0 0 0 0.0089028 -0.00173523 6.3728e-06 21.8641 0.0168814 0.0165481)
(0 0 0 0.00300558 -0.00175815 2.29641e-06 21.8997 0.00576913 0.0166164)
(0 0 0 2.9607 0.000127128 -0.000207951 0.37828 -3.87937e-05 -0.000192628)
(-1.07036e-17 -1.30659e-21 1.30659e-21 2.56623 0.000327932 0.00017008 1.00641 0.000159066 -0.000274454)
(2.01377e-17 0 3.07276e-22 2.4815 0.000155139 0.000388444 1.6818 0.000323142 -0.000178604)
(0 0 0 2.3841 -6.09085e-06 0.000469016 2.3841 0.000469016 -6.09085e-06)
(0 0 0 2.27319 -0.000114957 0.000316799 3.09598 0.000631195 0.00012777)
(0 0 0 2.15132 -3.93957e-05 -0.000129754 3.80601 0.000899168 9.17571e-05)
(0 0 0 2.02186 0.000369958 -0.000752652 4.50647 0.00144991 -0.000249403)
(5.9335e-17 7.24304e-21 -1.81076e-21 1.88841 0.00115521 -0.00130961 5.19231 0.00245383 -0.000919835)
(5.5816e-17 0 -1.3627e-20 1.75414 0.00221502 -0.00161307 5.86045 0.00397662 -0.00179232)
(0 0 -2.56376e-20 1.62165 0.00336858 -0.00161788 6.50944 0.0059708 -0.00267694)
(-9.87838e-17 0 0 1.49302 0.00444257 -0.00138659 7.13862 0.0083329 -0.00340571)
(0 0 0 1.36997 0.00531488 -0.00102366 7.74814 0.0109542 -0.00386782)
(0 0 0 1.25376 0.00592329 -0.000627645 8.33817 0.0137445 -0.00401401)
(0 -1.60606e-19 0 1.14523 0.00625729 -0.000268127 8.90952 0.0166375 -0.00384638)
(-7.73534e-17 1.51081e-19 -3.77702e-20 1.04468 0.00634283 1.85129e-05 9.4625 0.0195865 -0.00340209)
(1.45532e-16 -1.42121e-19 0 0.952273 0.0062261 0.000222542 9.99782 0.0225581 -0.00273728)
(1.36901e-16 0 0 0.867992 0.00596026 0.00035104 10.5162 0.0255267 -0.00191378)
(0 0 0 0.791156 0.00559639 0.000419058 11.018 0.0284706 -0.000990189)
(0 0 0 0.721386 0.00517853 0.000443409 11.5039 0.0313712 -1.65819e-05)
(-2.27919e-16 -4.45155e-19 0 0.658173 0.004741 0.00043919 11.9748 0.0342121 0.00096768)
(-1.07201e-16 -4.18754e-19 0 0.600723 0.00430828 0.000418352 12.4308 0.03698 0.00193385)
(2.01687e-16 1.18176e-18 -2.462e-20 0.548531 0.00389629 0.000389452 12.8725 0.0396648 0.00286276)
(0 -3.70558e-19 1.15799e-20 0.501126 0.00351404 0.000358094 13.3004 0.0422589 0.003743)
(0 0 0 0.457933 0.00316504 0.000327653 13.7148 0.044758 0.00456908)
(0 0 0 0.418433 0.00284901 0.000299869 14.116 0.0471592 0.00533981)
(0 0 0 0.382356 0.00256335 0.000275425 14.5043 0.0494605 0.00605684)
(0 -5.80336e-19 -1.13347e-21 0.349255 0.00230379 0.000254384 14.8798 0.0516601 0.00672363)
(0 5.45919e-19 4.26499e-21 0.318825 0.00206534 0.000236456 15.2424 0.0537546 0.00734457)
(1.31467e-16 5.13543e-19 8.0241e-21 0.290838 0.00184284 0.0002212 15.5925 0.0557382 0.00792457)
(0 4.83086e-19 7.54822e-21 0.265048 0.00163113 0.000208125 15.9299 0.0576015 0.0084686)
(0 0 0 0.24127 0.00142535 0.000196769 16.2546 0.0593318 0.00898144)
(0 0 0 0.21926 0.00122116 0.000186706 16.5665 0.0609072 0.00946761)
(0 0 0 0.198898 0.00101468 0.000177573 16.8655 0.0623034 0.00993119)
(3.87363e-16 1.51314e-18 2.36428e-20 0.180074 0.000802668 0.000169056 17.1515 0.0634871 0.0103758)
(0 0 0 0.162604 0.000582591 0.000160879 17.4243 0.0644143 0.0108046)
(-1.7139e-16 0 0 0.146364 0.000352725 0.000152784 17.6838 0.0650358 0.0112199)
(0 6.29787e-19 3.93617e-20 0.131318 0.000112422 0.000144505 17.9298 0.0652908 0.0116232)
(-4.54991e-16 -1.18487e-18 -3.70273e-20 0.117359 -0.000137637 0.000135909 18.162 0.065111 0.0120146)
(0 0 0 0.104359 -0.000396162 0.000126981 18.38 0.0644229 0.0123939)
(0 0 0 0.0922793 -0.000660928 0.000117577 18.5841 0.063146 0.0127605)
(0 0 0 0.0810443 -0.000928038 0.000107514 18.7735 0.0611968 0.0131119)
(-2.37523e-16 0 -5.79889e-20 0.0705807 -0.00119176 9.67284e-05 18.9482 0.0584934 0.0134442)
(0 0 0 0.0608282 -0.00144534 8.52453e-05 19.1079 0.0549629 0.0137521)
(0 0 0 0.0516834 -0.00168068 7.31724e-05 19.2522 0.0505431 0.0140297)
(-1.9772e-16 -7.72343e-19 -9.65429e-20 0.0430934 -0.00189009 6.0743e-05 19.3806 0.0451976 0.0142708)
(1.85994e-16 3.63269e-19 0 0.0349531 -0.00206593 4.82752e-05 19.4924 0.0389101 0.01447)
(0 0 0 0.0271173 -0.00220387 3.62099e-05 19.5863 0.0317002 0.0146244)
(0 0 0 0.0194553 -0.00230198 2.48568e-05 19.661 0.0236044 0.0147345)
(-1.54826e-16 -1.51197e-19 0 0.0118074 -0.00236276 1.35984e-05 19.7143 0.0146892 0.0148034)
(0 0 -7.11152e-20 0.0039826 -0.00239421 3.91636e-06 19.743 0.00501893 0.0148098)
(5.35181e-18 -3.26648e-22 0 3.7876 0.000197562 -0.000591027 0.365144 -5.91022e-05 -0.000310557)
(0 0 2.45821e-21 3.30691 0.000548928 0.000152707 0.958065 0.000135348 -0.000469661)
(-1.89434e-17 0 0 3.22114 0.000321162 0.000544692 1.60326 0.000249269 -0.000357706)
(-3.56398e-17 0 0 3.09598 0.00012777 0.000631195 2.27319 0.000316799 -0.000114957)
(0 4.09255e-21 4.09255e-21 2.94083 4.12501e-05 0.000344996 2.94083 0.000344996 4.12501e-05)
(0 0 0 2.76816 0.000278035 -0.000330667 3.59009 0.000342499 -9.73274e-05)
(0 0 0 2.58685 0.00101794 -0.00120575 4.21424 0.000509248 -0.000653817)
(-1.67448e-16 -1.3627e-20 6.81348e-21 2.40323 0.00220334 -0.00192678 4.81167 0.00113823 -0.00157913)
(0 0 0 2.222 0.0035981 -0.00224286 5.383 0.00235592 -0.00266979)
(-9.87838e-17 -4.82343e-20 2.41171e-20 2.04636 0.00495347 -0.00212994 5.93013 0.00407539 -0.00370957)
(0 0 0 1.87862 0.00610154 -0.0017083 6.45531 0.00612609 -0.00455165)
(0 -8.53655e-20 0 1.72025 0.00695758 -0.0011362 6.96073 0.00835394 -0.00512274)
(1.6446e-16 0 -4.01514e-20 1.57226 0.00749845 -0.000549565 7.44844 0.0106539 -0.00540452)
(1.54707e-16 0 -3.77702e-20 1.43504 0.00774233 -3.837e-05 7.92013 0.0129689 -0.00541657)
(0 0 0 1.30855 0.00773177 0.000353908 8.37703 0.0152753 -0.0052013)
(0 0 0 1.19272 0.0075207 0.000619365 8.82042 0.0175684 -0.00481257)
(-1.28782e-16 -2.51527e-19 0 1.08699 0.00716457 0.000771887 9.25077 0.0198499 -0.00430658)
(0 0 0 0.990789 0.00671448 0.000835276 9.66848 0.0221216 -0.00373593)
(0 0 0 0.903409 0.00621358 0.000835191 10.0742 0.0243815 -0.00314586)
(0 0 0 0.823966 0.0056957 0.000794442 10.468 0.0266239 -0.00257237)
(0 0 0 0.751806 0.00518545 0.000731088 10.8502 0.02884 -0.00204196)
(0 0 0 0.686246 0.00469905 0.000658191 11.2209 0.0310201 -0.00157231)
(-1.78474e-16 -6.97163e-19 -6.80824e-22 0.626531 0.00424587 0.000584384 11.5804 0.0331546 -0.00117341)
(-1.67889e-16 -6.55817e-19 -5.12357e-21 0.572039 0.00382981 0.000514856 11.9285 0.0352334 -0.000849149)
(0 -6.16924e-19 0 0.522287 0.00345081 0.000452306 12.2655 0.0372492 -0.000598745)
(0 5.80336e-19 0 0.476744 0.00310614 0.000397759 12.5914 0.0391945 -0.000418011)
(0 0 0 0.434928 0.00279132 0.000351207 12.9059 0.0410621 -0.000300543)
(-2.62934e-16 0 -3.20964e-20 0.39655 0.00250095 0.000312064 13.2095 0.0428455 -0.000238544)
(0 0 -3.01929e-20 0.361255 0.00222912 0.000279478 13.5016 0.044537 -0.000223494)
(0 0 0 0.328725 0.00197023 0.000252486 13.7825 0.0461264 -0.000246631)
(2.18873e-16 8.54971e-19 2.67179e-20 0.298706 0.00171827 0.000230153 14.052 0.0476023 -0.000299272)
(0 0 0 0.270995 0.00146822 0.000211616 14.3098 0.0489469 -0.000373095)
(1.93682e-16 -7.56568e-19 0 0.245408 0.001216 0.000196097 14.5562 0.0501378 -0.00046025)
(-3.6439e-16 -7.11699e-19 -4.44812e-20 0.221733 0.000957025 0.000182913 14.7908 0.0511507 -0.000553563)
(0 0 0 0.199821 0.000688394 0.000171444 15.0135 0.0519504 -0.000646619)
(0 0 0 0.17954 0.000408092 0.000161109 15.2243 0.0524975 -0.000733932)
(3.03327e-16 0 7.40545e-20 0.160749 0.000114935 0.000151312 15.4231 0.0527446 -0.000811222)
(0 0 0 0.143322 -0.000190013 0.000141695 15.6097 0.0526367 -0.000876018)
(0 0 0 0.12719 -0.000505251 0.000132126 15.7839 0.0521146 -0.000926363)
(-2.52497e-16 -1.97264e-18 -1.2329e-19 0.112248 -0.000828314 0.000122253 15.9459 0.0511139 -0.000961503)
(0 0 0 0.098366 -0.00115448 0.000111667 16.0955 0.0495673 -0.000982731)
(0 0 0 0.0854997 -0.00147672 0.000100172 16.2327 0.0474097 -0.000993404)
(-2.10185e-16 -8.21035e-19 -1.02629e-19 0.0735439 -0.00178701 8.7725e-05 16.3574 0.0445791 -0.000998317)
(1.9772e-16 0 0 0.0623928 -0.00207546 7.44469e-05 16.4693 0.0410259 -0.00100345)
(0 0 0 0.0519474 -0.0023326 6.06704e-05 16.5685 0.0367168 -0.00101473)
(0 0 0 0.042062 -0.00254924 4.69296e-05 16.6543 0.031636 -0.00103696)
(0 0 8.03647e-20 0.0325991 -0.00271986 3.3939e-05 16.7261 0.0257954 -0.00107148)
(0 3.02394e-19 0 0.0233705 -0.002842 2.22636e-05 16.7832 0.019223 -0.0011146)
(0 0 0 0.014169 -0.00291828 1.10051e-05 16.8237 0.0119691 -0.00115795)
(0 0 0 0.00477746 -0.00295746 2.60815e-06 16.8454 0.00408959 -0.00118325)
(0 0 0 4.62777 0.000215298 -0.00120518 0.352384 -9.27415e-05 -0.000403247)
(-1.89434e-17 -2.31242e-21 4.62485e-21 4.05179 0.000699176 0.000102485 0.910026 3.68181e-05 -0.000603057)
(0 0 -2.17528e-21 3.96701 0.00035784 0.000787408 1.52019 -2.89299e-06 -0.00043637)
(0 0 0 3.80601 9.17571e-05 0.000899168 2.15132 -0.000129754 -3.93957e-05)
(0 0 0 3.59009 -9.73274e-05 0.000342499 2.76816 -0.000330667 0.000278035)
(0 0 0 3.34883 9.4955e-05 -0.000779151 3.34883 -0.000779151 9.4955e-05)
(1.67448e-16 6.81348e-21 -5.11011e-21 3.10204 0.00104255 -0.00206639 3.88664 -0.0014227 -0.000830726)
(0 0 0 2.8602 0.00265936 -0.00299741 4.38389 -0.00186543 -0.00235855)
(0 0 0 2.62867 0.0044879 -0.00329546 4.84622 -0.00178289 -0.0041084)
(-9.29253e-17 4.53737e-20 0 2.41017 0.00612569 -0.00302009 5.27972 -0.00114477 -0.00575113)
(0 0 0 2.20579 0.00739231 -0.00238233 5.69014 -8.29473e-05 -0.00712013)
(0 8.03028e-20 -8.03028e-20 2.01601 0.00825429 -0.00159596 6.08208 0.00125255 -0.00816966)
(0 0 -7.55404e-20 1.84082 0.0087427 -0.000823627 6.45943 0.00274956 -0.00891463)
(-2.91063e-16 -5.68483e-19 1.42121e-19 1.67974 0.00891352 -0.000165831 6.82465 0.00434071 -0.00939464)
(1.36901e-16 2.67384e-19 -6.68461e-20 1.53218 0.00882986 0.000332464 7.18021 0.00599555 -0.00965777)
(0 0 0 1.39736 0.00855328 0.000666722 7.52718 0.00770463 -0.00975304)
(-1.21144e-16 0 5.91525e-20 1.27441 0.00813966 0.000856778 7.86626 0.00946718 -0.00972661)
(0 0 0 1.16238 0.00763742 0.000933339 8.19816 0.0112833 -0.00962037)
(-2.14402e-16 -4.18754e-19 0 1.06049 0.00708677 0.000928902 8.52253 0.0131492 -0.00947011)
(0 0 0 0.96781 0.00651932 0.000872465 8.83961 0.0150562 -0.00930515)
(0 0 0 0.883338 0.00595845 0.000787218 9.14942 0.0169917 -0.00914789)
(0 0 0 0.806371 0.00542031 0.000690177 9.45135 0.0189406 -0.00901427)
(3.35779e-16 6.55817e-19 -2.04943e-20 0.736183 0.0049145 0.0005928 9.74554 0.0208866 -0.00891426)
(-3.15865e-16 0 1.92789e-20 0.672037 0.00444569 0.000502109 10.0314 0.0228137 -0.00885271)
(-2.97132e-16 -5.80336e-19 0 0.613319 0.00401469 0.000421842 10.3091 0.0247076 -0.00883035)
(0 0 0 0.55945 0.00361912 0.000353458 10.5779 0.026554 -0.00884468)
(0 0 0 0.510039 0.00325494 0.000296966 10.838 0.0283412 -0.00889086)
(-2.4734e-16 -9.66173e-19 0 0.46462 0.00291706 0.000251531 11.0889 0.0300589 -0.00896247)
(0 0 0 0.422763 0.00259947 0.00021588 11.3306 0.0316956 -0.00905217)
(0 -8.54971e-19 0 0.384238 0.00229628 0.000188578 11.5628 0.0332407 -0.0091522)
(0 0 0 0.348695 0.00200129 0.000168186 11.7851 0.0346822 -0.00925473)
(0 0 0 0.315894 0.00170845 0.000153348 11.9978 0.0360054 -0.00935226)
(0 0 0 0.285601 0.00141341 0.000142833 12.2003 0.0371936 -0.00943786)
(0 0 -2.09216e-20 0.257618 0.00111161 0.000135533 12.3926 0.0382243 -0.00950532)
(-3.22451e-16 0 -1.96808e-20 0.23175 0.000799126 0.000130461 12.5745 0.0390725 -0.00954944)
(3.03327e-16 1.18487e-18 1.85136e-20 0.207817 0.000473775 0.000126696 12.746 0.0397074 -0.00956618)
(2.85338e-16 1.1146e-18 3.48313e-20 0.185712 0.000134141 0.0001233 12.9069 0.0400934 -0.00955299)
(-2.68416e-16 -1.0485e-18 -3.27656e-20 0.165265 -0.00021902 0.000119689 13.0573 0.04019 -0.00950915)
(0 0 0 0.146354 -0.000583898 0.000115566 13.1972 0.0399463 -0.00943538)
(0 0 0 0.128897 -0.000957566 0.000110389 13.3264 0.0393158 -0.00933406)
(0 0 0 0.112747 -0.00133461 0.000103572 13.445 0.0382464 -0.00920977)
(-4.2037e-16 -8.21035e-19 -5.13147e-20 0.0978085 -0.00170739 9.48182e-05 13.5532 0.0366847 -0.0090696)
(0 0 0 0.0839768 -0.00206663 8.40742e-05 13.6509 0.0345843 -0.0089225)
(0 0 0 0.0711171 -0.00240093 7.15496e-05 13.7382 0.0319042 -0.00877897)
(0 0 0 0.0591079 -0.00269968 5.77819e-05 13.815 0.0286158 -0.00864959)
(3.29174e-16 6.42918e-19 0 0.0477923 -0.00295214 4.36187e-05 13.8811 0.0247051 -0.00854393)
(3.09652e-16 6.04789e-19 3.77993e-20 0.0370062 -0.00315174 3.02304e-05 13.9363 0.0201795 -0.00846812)
(2.91288e-16 2.84461e-19 7.11152e-20 0.0265099 -0.0032955 1.85843e-05 13.9798 0.0150607 -0.00842267)
(-2.74013e-16 0 0 0.0160569 -0.003386 8.91674e-06 14.0108 0.00938848 -0.00840352)
(5.15524e-16 1.2586e-19 6.29302e-20 0.00540673 -0.00343227 2.28192e-06 14.0273 0.00320917 -0.00837173)
(0 -1.15621e-21 0 5.47858 0.000112587 -0.00195294 0.338361 -0.000136708 -0.000411892)
(3.56398e-17 0 -4.35056e-21 4.79618 0.000664627 9.74865e-05 0.860842 -0.000115741 -0.00055855)
(0 0 0 4.71151 0.000115737 0.00121915 1.43321 -0.000369906 -0.000265073)
(0 0 0 4.50647 -0.000249403 0.00144991 2.02186 -0.000752652 0.000369958)
(0 0 0 4.21424 -0.000653817 0.000509248 2.58685 -0.00120575 0.00101794)
(-1.67448e-16 5.11011e-21 -6.81348e-21 3.88664 -0.000830726 -0.0014227 3.10204 -0.00206639 0.00104255)
(0 0 0 3.55993 -4.36329e-05 -0.00351439 3.55993 -0.00351439 -4.36329e-05)
(0 0 0 3.25131 0.00183115 -0.00484495 3.96566 -0.00518077 -0.00209464)
(0 0 0 2.96634 0.00414623 -0.00509241 4.32879 -0.00657191 -0.0045254)
(0 0 0 2.70566 0.00624222 -0.00451328 4.65938 -0.00745133 -0.00680161)
(1.6446e-16 0 -1.60606e-19 2.46808 0.00783538 -0.00351091 4.96595 -0.00779666 -0.00865425)
(0 2.26621e-19 -7.55404e-20 2.25179 0.0088969 -0.00239653 5.25549 -0.00767505 -0.0100273)
(0 0 0 2.05487 0.00949451 -0.00136139 5.5332 -0.00717626 -0.0109696)
(0 0 0 1.8757 0.00972037 -0.000504569 5.80284 -0.00638089 -0.0115609)
(0 0 1.25763e-19 1.71261 0.00966307 0.000138961 6.06699 -0.00534902 -0.0118796)
(0 0 0 1.56394 0.00939779 0.00057577 6.32729 -0.00412153 -0.0119923)
(0 0 0 1.42857 0.00898647 0.000835107 6.58484 -0.00272594 -0.0119526)
(-6.43207e-16 -1.25626e-18 1.04689e-19 1.30513 0.0084792 0.000955468 6.83999 -0.00118405 -0.0118035)
(0 0 0 1.19247 0.00791578 0.000975941 7.09274 0.000484202 -0.0115788)
(0 0 0 1.08975 0.00732749 0.000930851 7.34274 0.00225802 -0.0113058)
(1.78474e-16 0 8.71454e-20 0.995828 0.00673806 0.000847772 7.58957 0.0041151 -0.0110048)
(0 0 0 0.909965 0.00616422 0.000747183 7.833 0.0060318 -0.0106918)
(0 0 7.71154e-20 0.831337 0.00561699 0.000643226 8.07215 0.0079846 -0.010378)
(0 0 0 0.759223 0.00510272 0.000544866 8.30667 0.00995083 -0.0100704)
(0 -1.09184e-18 6.82399e-20 0.693078 0.00462328 0.000457179 8.53582 0.011909 -0.0097733)
(0 2.05417e-18 0 0.632248 0.00417788 0.000382474 8.75924 0.0138389 -0.00948796)
(0 0 0 0.576263 0.003764 0.000321199 8.97639 0.0157256 -0.00921363)
(0 0 0 0.524724 0.00337686 0.000272677 9.18672 0.017552 -0.00894794)
(0 0 0 0.477246 0.00301087 0.000235601 9.39001 0.0193048 -0.00868733)
(-4.11784e-16 -8.04266e-19 2.51333e-20 0.433391 0.00266068 0.000208362 9.58571 0.0209709 -0.00842748)
(0 0 -2.36428e-20 0.392929 0.00231974 0.000189269 9.77336 0.0225367 -0.0081637)
(0 0 0 0.3556 0.00198245 0.000176673 9.95288 0.0239901 -0.00789122)
(0 1.33898e-18 0 0.321089 0.00164375 0.000169047 10.1238 0.0253156 -0.00760549)
(0 0 0 0.289207 0.00129822 0.000164987 10.286 0.0264952 -0.0073025)
(0 0 1.85136e-20 0.259777 0.000942373 0.000163218 10.4392 0.0275111 -0.00697899)
(2.85338e-16 1.1146e-18 0 0.232594 0.000573437 0.000162543 10.5834 0.0283375 -0.00663279)
(-8.05248e-16 -3.1455e-18 1.63828e-20 0.20749 0.000189903 0.000161774 10.7182 0.0289489 -0.00626311)
(0 0 0 0.184312 -0.000208122 0.000160099 10.8438 0.0293128 -0.00587086)
(0 0 -9.06077e-22 0.162933 -0.000618588 0.000157073 10.9601 0.0293924 -0.00545896)
(0 0 0 0.14322 -0.00103779 0.000152023 11.0671 0.0291507 -0.00503176)
(0 0 0 0.125035 -0.00146067 0.00014422 11.1648 0.0285488 -0.00459595)
(0 0 1.20679e-20 0.108269 -0.00187847 0.000133288 11.2536 0.0275452 -0.00416092)
(3.71988e-16 7.26539e-19 0 0.0927924 -0.00228098 0.000119185 11.3332 0.0261031 -0.00373817)
(0 0 0 0.0784598 -0.00265615 0.00010225 11.404 0.0241913 -0.00334097)
(0 0 0 0.0651095 -0.00299195 8.3263e-05 11.4659 0.0217848 -0.00298285)
(3.09652e-16 0 0 0.0525768 -0.0032765 6.34462e-05 11.519 0.0188737 -0.00267658)
(2.91288e-16 -5.68921e-19 0 0.0406488 -0.00350232 4.445e-05 11.5632 0.0154627 -0.00243135)
(0 0 0 0.0290924 -0.00366591 2.76705e-05 11.5978 0.0115686 -0.00225156)
(0 0 0 0.0176172 -0.00376977 1.48992e-05 11.6222 0.00722508 -0.00213686)
(0 0 0 0.00592836 -0.0038228 4.92236e-06 11.6354 0.0024718 -0.00205696)
(0 0 0 6.33553 -0.000154984 -0.002596 0.322572 -0.000182227 -0.000301179)
(0 1.02314e-21 0 5.5359 0.000386569 0.000289564 0.810006 -0.000271818 -0.000270365)
(0 0 0 5.44883 -0.000460725 0.00196957 1.34349 -0.000722505 0.000233331)
(5.9335e-17 -1.81076e-21 7.24304e-21 5.19231 -0.000919835 0.00245383 1.88841 -0.00130961 0.00115521)
(1.67448e-16 -6.81348e-21 1.3627e-20 4.81167 -0.00157913 0.00113823 2.40323 -0.00192678 0.00220334)