/*--------------------------------*- C++ -*----------------------------------*\
| =========                 |                                                 |
| \\      /  F ield         | OpenFOAM: The Open Source CFD Toolbox           |
|  \\    /   O peration     | Version:  v1912                                 |
|   \\  /    A nd           | Website:  www.openfoam.com                      |
|    \\/     M anipulation  |                                                 |
\*---------------------------------------------------------------------------*/
FoamFile
{
    version     2.0;
    format      ascii;
    class       volScalarField;
    location    "9000";
    object      nut;
}
// * * * * * * * * * * * * * * * * * * * * * * * * * * * * * * * * * * * * * //

dimensions      [0 2 -1 0 0 0 0];


internalField   nonuniform List<scalar> 
2500
(
6.50421e-05
6.16571e-05
6.10326e-05
6.30583e-05
6.66731e-05
7.10653e-05
7.57207e-05
8.03452e-05
8.47846e-05
8.89668e-05
9.28661e-05
9.64818e-05
9.98266e-05
0.000102919
0.000105782
0.000108438
0.000110908
0.000113212
0.00011537
0.000117396
0.000119305
0.00012111
0.00012282
0.000124445
0.000125992
0.000127467
0.000128876
0.000130223
0.000131512
0.000132745
0.000133926
0.000135056
0.000136137
0.00013717
0.000138156
0.000139095
0.000139988
0.000140834
0.000141632
0.000142383
0.000143084
0.000143735
0.000144334
0.000144877
0.000145364
0.000145789
0.000146148
0.000146435
0.000146639
0.00014675
6.16571e-05
6.00451e-05
5.78045e-05
5.725e-05
5.85228e-05
6.10696e-05
6.4296e-05
6.7781e-05
7.12719e-05
7.46314e-05
7.77935e-05
8.07334e-05
8.34497e-05
8.59535e-05
8.82625e-05
9.03968e-05
9.23767e-05
9.42214e-05
9.59485e-05
9.75733e-05
9.9109e-05
0.000100567
0.000101957
0.000103286
0.000104562
0.000105789
0.000106973
0.000108117
0.000109224
0.000110296
0.000111335
0.000112342
0.000113319
0.000114264
0.000115179
0.000116063
0.000116915
0.000117733
0.000118516
0.000119262
0.000119968
0.00012063
0.000121246
0.000121812
0.000122322
0.000122772
0.000123155
0.000123461
0.000123681
0.0001238
6.10326e-05
5.78045e-05
5.57163e-05
5.52754e-05
5.63663e-05
5.87718e-05
6.20384e-05
6.57264e-05
6.95212e-05
7.3229e-05
7.67439e-05
8.00174e-05
8.30364e-05
8.58088e-05
8.83542e-05
9.0697e-05
9.28635e-05
9.48787e-05
9.67657e-05
9.85446e-05
0.000100233
0.000101845
0.000103392
0.000104886
0.000106334
0.000107742
0.000109116
0.000110461
0.000111779
0.000113074
0.000114346
0.000115596
0.000116826
0.000118033
0.000119218
0.000120379
0.000121512
0.000122615
0.000123684
0.000124714
0.0001257
0.000126636
0.000127514
0.000128327
0.000129067
0.000129722
0.000130283
0.000130733
0.000131058
0.000131234
6.30583e-05
5.725e-05
5.52754e-05
5.70154e-05
6.08398e-05
6.59196e-05
7.1748e-05
7.78999e-05
8.40429e-05
8.9953e-05
9.55004e-05
0.000100625
0.000105316
0.000109589
0.000113482
0.000117037
0.000120301
0.000123317
0.000126127
0.000128764
0.00013126
0.00013364
0.000135925
0.000138132
0.000140275
0.000142365
0.000144413
0.000146424
0.000148406
0.000150361
0.000152293
0.000154204
0.000156093
0.00015796
0.000159802
0.000161617
0.000163399
0.000165144
0.000166844
0.000168491
0.000170075
0.000171584
0.000173007
0.000174329
0.000175535
0.000176608
0.000177526
0.000178266
0.000178799
0.000179089
6.66731e-05
5.85228e-05
5.63663e-05
6.08398e-05
6.94061e-05
7.99446e-05
9.12226e-05
0.000102545
0.000113479
0.00012376
0.000133243
0.000141875
0.000149665
0.000156665
0.00016295
0.000168607
0.000173722
0.000178381
0.00018266
0.000186625
0.000190333
0.000193834
0.000197167
0.000200364
0.000203454
0.000206457
0.000209392
0.000212273
0.000215111
0.000217916
0.000220691
0.000223443
0.000226172
0.000228879
0.000231559
0.00023421
0.000236824
0.000239393
0.000241905
0.000244349
0.000246707
0.000248962
0.000251095
0.000253083
0.000254901
0.000256522
0.000257912
0.000259034
0.000259842
0.000260282
7.10653e-05
6.10696e-05
5.87718e-05
6.59196e-05
7.99446e-05
9.77153e-05
0.000116885
0.000136063
0.000154459
0.000171627
0.00018734
0.000201518
0.000214181
0.000225418
0.000235358
0.00024415
0.000251948
0.000258903
0.000265153
0.000270821
0.000276013
0.000280821
0.000285322
0.000289577
0.000293641
0.000297555
0.000301356
0.000305071
0.000308722
0.000312329
0.000315904
0.000319457
0.000322993
0.000326515
0.00033002
0.000333504
0.000336959
0.000340372
0.000343728
0.000347009
0.000350192
0.000353252
0.000356157
0.000358876
0.000361372
0.000363603
0.000365522
0.000367074
0.000368195
0.000368804
7.57207e-05
6.4296e-05
6.20384e-05
7.1748e-05
9.12226e-05
0.000116885
0.00014539
0.000174436
0.000202627
0.000229151
0.000253561
0.000275653
0.000295386
0.000312836
0.000328153
0.000341537
0.00035321
0.000363402
0.000372332
0.000380207
0.000387211
0.000393505
0.000399227
0.000404498
0.000409416
0.000414063
0.000418509
0.00042281
0.000427012
0.000431151
0.000435256
0.000439348
0.000443443
0.000447548
0.000451667
0.000455795
0.000459923
0.000464036
0.000468116
0.000472138
0.00047607
0.000479877
0.000483517
0.000486944
0.000490107
0.000492946
0.000495398
0.000497388
0.000498827
0.00049961
8.03452e-05
6.7781e-05
6.57264e-05
7.78999e-05
0.000102545
0.000136063
0.000174436
0.000214457
0.000253991
0.000291734
0.000326926
0.000359145
0.000388209
0.000414095
0.000436901
0.000456811
0.000474067
0.000488942
0.000501729
0.000512715
0.000522177
0.00053037
0.000537523
0.000543841
0.0005495
0.000554651
0.000559425
0.000563928
0.000568252
0.000572468
0.000576638
0.000580805
0.000585005
0.00058926
0.000593583
0.000597976
0.000602434
0.000606939
0.00061147
0.000615996
0.000620476
0.000624863
0.000629101
0.000633127
0.000636871
0.000640257
0.000643196
0.000645591
0.000647329
0.000648278
8.47846e-05
7.12719e-05
6.95212e-05
8.40429e-05
0.000113479
0.000154459
0.000202627
0.000253991
0.000305624
0.000355655
0.000402957
0.000446878
0.000487059
0.000523335
0.00055569
0.000584215
0.000609089
0.000630558
0.000648916
0.000664487
0.00067761
0.000688622
0.000697849
0.000705597
0.000712148
0.000717752
0.000722633
0.000726984
0.000730971
0.000734733
0.000738386
0.000742022
0.000745715
0.000749518
0.000753466
0.000757577
0.000761855
0.000766287
0.00077085
0.00077551
0.000780216
0.000784907
0.00078951
0.000793944
0.000798116
0.000801926
0.00080526
0.000807994
0.000809988
0.00081108
8.89668e-05
7.46314e-05
7.3229e-05
8.9953e-05
0.00012376
0.000171627
0.000229151
0.000291734
0.000355655
0.000418402
0.000478451
0.00053491
0.000587265
0.000635227
0.000678661
0.000717538
0.000751924
0.000781964
0.000807874
0.000829929
0.000848452
0.000863803
0.000876359
0.000886506
0.000894623
0.000901074
0.000906198
0.000910306
0.000913675
0.000916548
0.000919135
0.000921609
0.000924115
0.000926761
0.00092963
0.000932774
0.000936221
0.000939971
0.000944011
0.000948305
0.000952795
0.000957406
0.000962048
0.000966617
0.000970993
0.000975049
0.000978641
0.000981614
0.000983796
0.000984997
9.28661e-05
7.77935e-05
7.67439e-05
9.55004e-05
0.000133243
0.00018734
0.000253561
0.000326926
0.000402957
0.000478451
0.000551423
0.000620726
0.000685709
0.000745991
0.000801353
0.000851679
0.000896924
0.000937116
0.000972346
0.00100278
0.00102864
0.00105021
0.00106786
0.00108196
0.00109295
0.00110125
0.00110733
0.0011116
0.00111448
0.00111635
0.00111754
0.00111836
0.00111907
0.00111986
0.0011209
0.00112231
0.00112418
0.00112652
0.00112936
0.00113267
0.00113638
0.00114043
0.00114468
0.00114903
0.00115331
0.00115738
0.00116104
0.00116412
0.0011664
0.00116766
9.64818e-05
8.07334e-05
8.00174e-05
0.000100625
0.000141875
0.000201518
0.000275653
0.000359145
0.000446878
0.00053491
0.000620726
0.000702885
0.00078059
0.000853391
0.000921019
0.000983305
0.00104014
0.00109146
0.00113725
0.00117754
0.00121242
0.00124205
0.00126668
0.00128662
0.00130223
0.00131397
0.00132231
0.00132776
0.00133086
0.00133212
0.00133202
0.00133103
0.00132955
0.00132794
0.00132648
0.00132542
0.0013249
0.00132505
0.00132592
0.00132752
0.00132979
0.00133267
0.00133602
0.0013397
0.00134352
0.00134729
0.00135079
0.0013538
0.00135606
0.00135732
9.98266e-05
8.34497e-05
8.30364e-05
0.000105316
0.000149665
0.000214181
0.000295386
0.000388209
0.000487059
0.000587265
0.000685709
0.00078059
0.000870942
0.000956242
0.00103619
0.0011106
0.00117932
0.00124224
0.00129927
0.00135034
0.00139543
0.00143456
0.00146782
0.00149538
0.00151749
0.00153451
0.00154686
0.00155506
0.00155966
0.00156129
0.00156056
0.00155809
0.00155446
0.0015502
0.00154579
0.00154163
0.00153801
0.00153516
0.00153324
0.00153232
0.0015324
0.00153342
0.00153524
0.00153771
0.00154062
0.00154372
0.00154677
0.00154948
0.00155157
0.00155276
0.000102919
8.59535e-05
8.58088e-05
0.000109589
0.000156665
0.000225418
0.000312836
0.000414095
0.000523335
0.000635227
0.000745991
0.000853391
0.000956242
0.00105394
0.00114615
0.00123267
0.00131334
0.00138804
0.00145662
0.00151897
0.00157497
0.00162453
0.00166761
0.00170422
0.00173447
0.00175855
0.00177676
0.00178951
0.00179733
0.00180082
0.00180066
0.0017976
0.00179236
0.00178567
0.00177822
0.00177059
0.0017633
0.00175675
0.00175125
0.00174698
0.00174404
0.00174241
0.00174199
0.00174261
0.00174405
0.00174603
0.00174826
0.00175041
0.00175215
0.00175316
0.000105782
8.82625e-05
8.83542e-05
0.000113482
0.00016295
0.000235358
0.000328153
0.000436901
0.00055569
0.000678661
0.000801353
0.000921019
0.00103619
0.00114615
0.00125052
0.00134909
0.0014417
0.00152821
0.00160847
0.00168232
0.00174959
0.00181013
0.00186379
0.00191045
0.00195007
0.00198268
0.0020084
0.00202749
0.00204034
0.00204746
0.0020495
0.00204721
0.00204144
0.00203304
0.0020229
0.00201183
0.0020006
0.00198985
0.00198007
0.00197165
0.00196484
0.00195971
0.00195623
0.00195427
0.0019536
0.00195392
0.00195489
0.00195614
0.0019573
0.00195803
0.000108438
9.03968e-05
9.0697e-05
0.000117037
0.000168607
0.00024415
0.000341537
0.000456811
0.000584215
0.000717538
0.000851679
0.000983305
0.0011106
0.00123267
0.00134909
0.00145963
0.00156414
0.00166246
0.00175444
0.0018399
0.00191864
0.00199046
0.00205514
0.00211249
0.00216232
0.00220453
0.00223908
0.00226603
0.0022856
0.00229813
0.00230415
0.00230433
0.0022995
0.00229059
0.00227861
0.0022646
0.00224955
0.00223438
0.00221985
0.00220661
0.0021951
0.0021856
0.0021782
0.00217284
0.00216931
0.00216732
0.0021665
0.00216645
0.00216676
0.00216704
0.000110908
9.23767e-05
9.28635e-05
0.000120301
0.000173722
0.000251948
0.00035321
0.000474067
0.000609089
0.000751924
0.000896924
0.00104014
0.00117932
0.00131334
0.0014417
0.00156414
0.0016805
0.00179062
0.00189434
0.00199148
0.00208181
0.00216509
0.00224108
0.0023095
0.0023701
0.00242265
0.00246697
0.00250297
0.00253065
0.00255019
0.00256191
0.00256632
0.00256415
0.00255627
0.00254375
0.00252775
0.00250945
0.00249004
0.00247059
0.00245205
0.00243518
0.00242048
0.00240825
0.00239859
0.00239136
0.00238633
0.0023831
0.00238127
0.00238038
0.00238004
0.000113212
9.42214e-05
9.48787e-05
0.000123317
0.000178381
0.000258903
0.000363402
0.000488942
0.000630558
0.000781964
0.000937116
0.00109146
0.00124224
0.00138804
0.00152821
0.00166246
0.00179062
0.00191253
0.00202801
0.00213688
0.00223889
0.00233378
0.00242126
0.00250103
0.00257277
0.00263617
0.00269094
0.00273685
0.00277374
0.00280159
0.00282051
0.00283081
0.00283302
0.00282789
0.00281641
0.00279973
0.00277919
0.00275617
0.00273203
0.00270804
0.00268531
0.0026647
0.0026468
0.00263191
0.00262008
0.00261116
0.00260481
0.00260062
0.00259813
0.00259696
0.00011537
9.59485e-05
9.67657e-05
0.000126127
0.00018266
0.000265153
0.000372332
0.000501729
0.000648916
0.000807874
0.000972346
0.00113725
0.00129927
0.00145662
0.00160847
0.00175444
0.00189434
0.00202801
0.00215527
0.00227592
0.00238969
0.00249631
0.00259546
0.0026868
0.00276996
0.00284457
0.00291027
0.00296672
0.00301363
0.00305079
0.00307814
0.00309576
0.00310395
0.00310326
0.00309451
0.00307876
0.00305733
0.00303173
0.00300352
0.00297431
0.00294556
0.00291854
0.0028942
0.00287319
0.00285582
0.00284211
0.00283183
0.00282461
0.00282005
0.0028178
0.000117396
9.75733e-05
9.85446e-05
0.000128764
0.000186625
0.000270821
0.000380207
0.000512715
0.000664487
0.000829929
0.00100278
0.00117754
0.00135034
0.00151897
0.00168232
0.0018399
0.00199148
0.00213688
0.00227592
0.00240838
0.00253399
0.00265246
0.00276342
0.00286652
0.00296134
0.00304746
0.00312447
0.00319193
0.00324946
0.00329671
0.00333344
0.00335955
0.00337509
0.00338039
0.00337602
0.00336287
0.00334213
0.0033153
0.00328407
0.00325026
0.00321569
0.00318204
0.00315072
0.0031228
0.00309896
0.0030795
0.00306441
0.00305343
0.00304625
0.00304262
0.000119305
9.9109e-05
0.000100233
0.00013126
0.000190333
0.000276013
0.000387211
0.000522177
0.00067761
0.000848452
0.00102864
0.00121242
0.00139543
0.00157497
0.00174959
0.00191864
0.00208181
0.00223889
0.00238969
0.00253399
0.00267151
0.00280192
0.00292484
0.00303987
0.00314657
0.00324447
0.00333309
0.00341196
0.00348058
0.00353852
0.00358539
0.0036209
0.00364493
0.00365753
0.00365905
0.00365011
0.00363172
0.00360522
0.0035723
0.00353489
0.00349509
0.00345496
0.00341639
0.00338096
0.00334982
0.00332367
0.00330283
0.00328728
0.00327687
0.00327152
0.00012111
0.000100567
0.000101845
0.00013364
0.000193834
0.000280821
0.000393505
0.00053037
0.000688622
0.000863803
0.00105021
0.00124205
0.00143456
0.00162453
0.00181013
0.00199046
0.00216509
0.00233378
0.00249631
0.00265246
0.00280192
0.00294435
0.00307935
0.00320648
0.00332525
0.00343517
0.0035357
0.0036263
0.00370641
0.00377552
0.00383312
0.00387879
0.0039122
0.00393322
0.00394192
0.00393867
0.00392421
0.00389967
0.00386658
0.00382689
0.00378281
0.00373673
0.00369099
0.0036477
0.00360858
0.00357489
0.00354738
0.00352641
0.00351211
0.00350466
0.00012282
0.000101957
0.000103392
0.000135925
0.000197167
0.000285322
0.000399227
0.000537523
0.000697849
0.000876359
0.00106786
0.00126668
0.00146782
0.00166761
0.00186379
0.00205514
0.00224108
0.00242126
0.00259546
0.00276342
0.00292484
0.00307935
0.00322653
0.00336589
0.00349693
0.00361908
0.00373178
0.00383441
0.00392638
0.00400707
0.0040759
0.00413232
0.00417586
0.00420619
0.00422316
0.00422688
0.00421781
0.00419679
0.00416514
0.00412465
0.00407756
0.00402642
0.00397396
0.00392279
0.00387529
0.00383333
0.00379829
0.00377105
0.00375218
0.00374223
0.000124445
0.000103286
0.000104886
0.000138132
0.000200364
0.000289577
0.000404498
0.000543841
0.000705597
0.000886506
0.00108196
0.00128662
0.00149538
0.00170422
0.00191045
0.00211249
0.0023095
0.00250103
0.0026868
0.00286652
0.00303987
0.00320648
0.00336589
0.0035176
0.00366105
0.00379565
0.00392075
0.00403571
0.00413985
0.00423251
0.00431299
0.00438067
0.00443495
0.00447534
0.00450148
0.00451326
0.00451084
0.00449479
0.00446613
0.00442643
0.00437777
0.00432278
0.00426441
0.00420574
0.00414974
0.00409905
0.00405576
0.00402146
0.00399733
0.00398448
0.000125992
0.000104562
0.000106334
0.000140275
0.000203454
0.000293641
0.000409416
0.0005495
0.000712148
0.000894623
0.00109295
0.00130223
0.00151749
0.00173447
0.00195007
0.00216232
0.0023701
0.00257277
0.00276996
0.00296134
0.00314657
0.00332525
0.00349693
0.00366105
0.00381704
0.00396423
0.00410196
0.0042295
0.00434613
0.00445108
0.00454363
0.00462302
0.00468857
0.00473964
0.00477571
0.00479645
0.00480179
0.00479199
0.00476776
0.00473038
0.00468173
0.0046243
0.00456115
0.0044957
0.00443149
0.00437189
0.00431986
0.00427784
0.00424783
0.0042317
0.000127467
0.000105789
0.000107742
0.000142365
0.000206457
0.000297555
0.000414063
0.000554651
0.000717752
0.000901074
0.00110125
0.00131397
0.00153451
0.00175855
0.00198268
0.00220453
0.00242265
0.00263617
0.00284457
0.00304746
0.00324447
0.00343517
0.00361908
0.00379565
0.00396423
0.00412416
0.00427468
0.00441503
0.00454441
0.00466199
0.00476696
0.00485849
0.00493577
0.00499807
0.00504473
0.00507521
0.00508923
0.00508679
0.0050683
0.00503471
0.0049876
0.00492927
0.00486273
0.00479157
0.00471981
0.0046515
0.00459053
0.00454035
0.00450397
0.00448421
0.000128876
0.000106973
0.000109116
0.000144413
0.000209392
0.000301356
0.000418509
0.000559425
0.000722633
0.000906198
0.00110733
0.00132231
0.00154686
0.00177676
0.0020084
0.00223908
0.00246697
0.00269094
0.00291027
0.00312447
0.00333309
0.0035357
0.00373178
0.00392075
0.00410196
0.00427468
0.00443813
0.00459147
0.00473384
0.00486434
0.00498206
0.0050861
0.00517557
0.0052496
0.00530741
0.00534832
0.00537183
0.00537771
0.0053661
0.00533762
0.00529355
0.00523589
0.0051675
0.005092
0.00501369
0.00493729
0.00486755
0.00480905
0.004766
0.00474238
0.000130223
0.000108117
0.000110461
0.000146424
0.000212273
0.000305071
0.00042281
0.000563928
0.000726984
0.000910306
0.0011116
0.00132776
0.00155506
0.00178951
0.00202749
0.00226603
0.00250297
0.00273685
0.00296672
0.00319193
0.00341196
0.0036263
0.00383441
0.00403571
0.0042295
0.00441503
0.00459147
0.00475793
0.00491347
0.00505713
0.00518791
0.00530482
0.00540687
0.00549309
0.00556259
0.00561453
0.00564825
0.00566331
0.0056596
0.00563744
0.00559779
0.00554236
0.00547372
0.00539543
0.00531195
0.00522845
0.00515056
0.00508396
0.0050342
0.00500663
0.000131512
0.000109224
0.000111779
0.000148406
0.000215111
0.000308722
0.000427012
0.000568252
0.000730971
0.000913675
0.00111448
0.00133086
0.00155966
0.00179733
0.00204034
0.0022856
0.00253065
0.00277374
0.00301363
0.00324946
0.00348058
0.00370641
0.00392638
0.00413985
0.00434613
0.00454441
0.00473384
0.00491347
0.00508231
0.00523932
0.00538341
0.0055135
0.00562851
0.00572736
0.00580902
0.00587256
0.00591715
0.00594216
0.00594726
0.00593252
0.00589859
0.00584686
0.00577962
0.00570025
0.00561322
0.00552404
0.00543904
0.005365
0.00530886
0.00527743
0.000132745
0.000110296
0.000113074
0.000150361
0.000217916
0.000312329
0.000431151
0.000572468
0.000734733
0.000916548
0.00111635
0.00133212
0.00156129
0.00180082
0.00204746
0.00229813
0.00255019
0.00280159
0.00305079
0.00329671
0.00353852
0.00377552
0.00400707
0.00423251
0.00445108
0.00466199
0.00486434
0.00505713
0.00523932
0.00540979
0.00556738
0.00571092
0.00583921
0.00595108
0.00604539
0.00612106
0.00617712
0.0062128
0.00622756
0.00622125
0.00619426
0.00614767
0.00608348
0.00600483
0.00591612
0.00582303
0.00573245
0.00565212
0.00559033
0.00555539
0.000133926
0.000111335
0.000114346
0.000152293
0.000220691
0.000315904
0.000435256
0.000576638
0.000738386
0.000919135
0.00111754
0.00133202
0.00156056
0.00180066
0.0020495
0.00230415
0.00256191
0.00282051
0.00307814
0.00333344
0.00358539
0.00383312
0.0040759
0.00431299
0.00454363
0.00476696
0.00498206
0.00518791
0.00538341
0.00556738
0.00573859
0.00589577
0.00603763
0.00616287
0.00627025
0.00635855
0.00642669
0.00647373
0.00649897
0.00650206
0.00648317
0.00644311
0.00638364
0.00630762
0.0062193
0.00612443
0.00603027
0.00594537
0.00587915
0.00584136
0.000135056
0.000112342
0.000115596
0.000154204
0.000223443
0.000319457
0.000439348
0.000580805
0.000742022
0.000921609
0.00111836
0.00133103
0.00155809
0.0017976
0.00204721
0.00230433
0.00256632
0.00283081
0.00309576
0.00335955
0.0036209
0.00387879
0.00413232
0.00438067
0.00462302
0.00485849
0.0050861
0.00530482
0.0055135
0.00571092
0.00589577
0.0060667
0.00622233
0.00636124
0.00648207
0.0065835
0.00666429
0.00672337
0.0067599
0.00677336
0.00676373
0.00673163
0.00667857
0.0066072
0.00652159
0.00642747
0.00633229
0.00624512
0.0061763
0.00613667
0.000136137
0.000113319
0.000116826
0.000156093
0.000226172
0.000322993
0.000443443
0.000585005
0.000745715
0.000924115
0.00111907
0.00132955
0.00155446
0.00179236
0.00204144
0.0022995
0.00256415
0.00283302
0.00310395
0.00337509
0.00364493
0.0039122
0.00417586
0.00443495
0.00468857
0.00493577
0.00517557
0.00540687
0.00562851
0.00583921
0.00603763
0.00622233
0.00639183
0.00654463
0.00667925
0.00679424
0.00688825
0.00696006
0.00700871
0.00703356
0.00703442
0.00701176
0.00696694
0.00690245
0.0068222
0.00673182
0.0066388
0.00655246
0.00648356
0.00644359
0.00013717
0.000114264
0.000118033
0.00015796
0.000228879
0.000326515
0.000447548
0.00058926
0.000749518
0.000926761
0.00111986
0.00132794
0.0015502
0.00178567
0.00203304
0.00229059
0.00255627
0.00282789
0.00310326
0.00338039
0.00365753
0.00393322
0.00420619
0.00447534
0.00473964
0.00499807
0.0052496
0.00549309
0.00572736
0.00595108
0.00616287
0.00636124
0.00654463
0.00671146
0.00686013
0.00698908
0.00709684
0.00718209
0.00724374
0.00728104
0.00729373
0.00728219
0.00724769
0.00719265
0.00712089
0.00703793
0.00695116
0.00686973
0.00680428
0.00676609
0.000138156
0.000115179
0.000119218
0.000159802
0.000231559
0.00033002
0.000451667
0.000593583
0.000753466
0.00092963
0.0011209
0.00132648
0.00154579
0.00177822
0.0020229
0.00227861
0.00254375
0.00281641
0.00309451
0.00337602
0.00365905
0.00394192
0.00422316
0.00450148
0.00477571
0.00504473
0.00530741
0.00556259
0.00580902
0.00604539
0.00627025
0.00648207
0.00667925
0.00686013
0.00702302
0.00716626
0.00728829
0.00738768
0.00746328
0.00751425
0.00754031
0.00754184
0.00752015
0.0074777
0.00741834
0.00734755
0.00727242
0.00720152
0.00714445
0.00711109
0.000139095
0.000116063
0.000120379
0.000161617
0.00023421
0.000333504
0.000455795
0.000597976
0.000757577
0.000932774
0.00112231
0.00132542
0.00154163
0.00177059
0.00201183
0.0022646
0.00252775
0.00279973
0.00307876
0.00336287
0.00365011
0.00393867
0.00422688
0.00451326
0.00479645
0.00507521
0.00534832
0.00561453
0.00587256
0.00612106
0.00635855
0.0065835
0.00679424
0.00698908
0.00716626
0.00732406
0.00746085
0.00757513
0.00766569
0.00773173
0.00777299
0.00778999
0.00778424
0.00775846
0.00771672
0.00766452
0.00760854
0.00755612
0.00751455
0.00749051
0.000139988
0.000116915
0.000121512
0.000163399
0.000236824
0.000336959
0.000459923
0.000602434
0.000761855
0.000936221
0.00112418
0.0013249
0.00153801
0.0017633
0.0020006
0.00224955
0.00250945
0.00277919
0.00305733
0.00334213
0.00363172
0.00392421
0.00421781
0.00451084
0.00480179
0.00508923
0.00537183
0.00564825
0.00591715
0.00617712
0.00642669
0.00666429
0.00688825
0.00709684
0.00728829
0.00746085
0.00761284
0.00774278
0.00784948
0.00793223
0.00799097
0.00802654
0.0080409
0.00803733
0.00802047
0.00799601
0.00797002
0.00794776
0.0079323
0.00792429
0.000140834
0.000117733
0.000122615
0.000165144
0.000239393
0.000340372
0.000464036
0.000606939
0.000766287
0.000939971
0.00112652
0.00132505
0.00153516
0.00175675
0.00198985
0.00223438
0.00249004
0.00275617
0.00303173
0.0033153
0.00360522
0.00389967
0.00419679
0.00449479
0.00479199
0.00508679
0.00537771
0.00566331
0.00594216
0.0062128
0.00647373
0.00672337
0.00696006
0.00718209
0.00738768
0.00757513
0.00774278
0.00788923
0.00801344
0.00811494
0.0081941
0.00825238
0.00829259
0.0083191
0.00833759
0.0083543
0.00837445
0.00839985
0.00842652
0.00844473
0.000141632
0.000118516
0.000123684
0.000166844
0.000241905
0.000343728
0.000468116
0.00061147
0.00077085
0.000944011
0.00112936
0.00132592
0.00153324
0.00175125
0.00198007
0.00221985
0.00247059
0.00273203
0.00300352
0.00328407
0.0035723
0.00386658
0.00416514
0.00446613
0.00476776
0.0050683
0.0053661
0.0056596
0.00594726
0.00622756
0.00649897
0.0067599
0.00700871
0.00724374
0.00746328
0.00766569
0.00784948
0.00801344
0.00815685
0.00827974
0.00838325
0.00846995
0.00854418
0.00861217
0.00868147
0.00875939
0.00884993
0.00894937
0.00904228
0.00910203
0.000142383
0.000119262
0.000124714
0.000168491
0.000244349
0.000347009
0.000472138
0.000615996
0.00077551
0.000948305
0.00113267
0.00132752
0.00153232
0.00174698
0.00197165
0.00220661
0.00245205
0.00270804
0.00297431
0.00325026
0.00353489
0.00382689
0.00412465
0.00442643
0.00473038
0.00503471
0.00533762
0.00563744
0.00593252
0.00622125
0.00650206
0.00677336
0.00703356
0.00728104
0.00751425
0.00773173
0.00793223
0.00811494
0.00827974
0.00842755
0.00856082
0.00868402
0.00880407
0.00893027
0.00907331
0.0092423
0.00943933
0.009652
0.00984679
0.00997063
0.000143084
0.000119968
0.0001257
0.000170075
0.000246707
0.000350192
0.00047607
0.000620476
0.000780216
0.000952795
0.00113638
0.00132979
0.0015324
0.00174404
0.00196484
0.0021951
0.00243518
0.00268531
0.00294556
0.00321569
0.00349509
0.00378281
0.00407756
0.00437777
0.00468173
0.0049876
0.00529355
0.00559779
0.00589859
0.00619426
0.00648317
0.00676373
0.00703442
0.00729373
0.00754031
0.00777299
0.00799097
0.0081941
0.00838325
0.00856082
0.00873145
0.0089027
0.00908564
0.00929453
0.00954494
0.00984871
0.0102048
0.0105872
0.0109346
0.0111543
0.000143735
0.00012063
0.000126636
0.000171584
0.000248962
0.000353252
0.000479877
0.000624863
0.000784907
0.000957406
0.00114043
0.00133267
0.00153342
0.00174241
0.00195971
0.0021856
0.00242048
0.0026647
0.00291854
0.00318204
0.00345496
0.00373673
0.00402642
0.00432278
0.0046243
0.00492927
0.00523589
0.00554236
0.00584686
0.00614767
0.00644311
0.00673163
0.00701176
0.00728219
0.00754184
0.00778999
0.00802654
0.00825238
0.00846995
0.00868402
0.0089027
0.00913845
0.00940872
0.00973539
0.0101412
0.0106418
0.0112305
0.0118602
0.0124288
0.0127867
0.000144334
0.000121246
0.000127514
0.000173007
0.000251095
0.000356157
0.000483517
0.000629101
0.00078951
0.000962048
0.00114468
0.00133602
0.00153524
0.00174199
0.00195623
0.0021782
0.00240825
0.0026468
0.0028942
0.00315072
0.00341639
0.00369099
0.00397396
0.00426441
0.00456115
0.00486273
0.0051675
0.00547372
0.00577962
0.00608348
0.00638364
0.00667857
0.00696694
0.00724769
0.00752015
0.00778424
0.0080409
0.00829259
0.00854418
0.00880407
0.00908564
0.00940872
0.00980034
0.0102933
0.0109205
0.0117012
0.0126196
0.0135966
0.0144726
0.0150208
0.000144877
0.000121812
0.000128327
0.000174329
0.000253083
0.000358876
0.000486944
0.000633127
0.000793944
0.000966617
0.00114903
0.0013397
0.00153771
0.00174261
0.00195427
0.00217284
0.00239859
0.00263191
0.00287319
0.0031228
0.00338096
0.0036477
0.00392279
0.00420574
0.0044957
0.00479157
0.005092
0.00539543
0.00570025
0.00600483
0.00630762
0.0066072
0.00690245
0.00719265
0.0074777
0.00775846
0.00803733
0.0083191
0.00861217
0.00893027
0.00929453
0.00973539
0.0102933
0.0110161
0.0119491
0.0131147
0.0144805
0.0159226
0.0172051
0.0180032
0.000145364
0.000122322
0.000129067
0.000175535
0.000254901
0.000361372
0.000490107
0.000636871
0.000798116
0.000970993
0.00115331
0.00134352
0.00154062
0.00174405
0.0019536
0.00216931
0.00239136
0.00262008
0.00285582
0.00309896
0.00334982
0.00360858
0.00387529
0.00414974
0.00443149
0.00471981
0.00501369
0.00531195
0.00561322
0.00591612
0.0062193
0.00652159
0.0068222
0.00712089
0.00741834
0.00771672
0.00802047
0.00833759
0.00868147
0.00907331
0.00954494
0.0101412
0.0109205
0.0119491
0.0132863
0.0149544
0.0168956
0.0189278
0.0207231
0.0218368
0.000145789
0.000122772
0.000129722
0.000176608
0.000256522
0.000363603
0.000492946
0.000640257
0.000801926
0.000975049
0.00115738
0.00134729
0.00154372
0.00174603
0.00195392
0.00216732
0.00238633
0.00261116
0.00284211
0.0030795
0.00332367
0.00357489
0.00383333
0.00409905
0.00437189
0.0046515
0.00493729
0.00522845
0.00552404
0.00582303
0.00612443
0.00642747
0.00673182
0.00703793
0.00734755
0.00766452
0.00799601
0.0083543
0.00875939
0.0092423
0.00984871
0.0106418
0.0117012
0.0131147
0.0149544
0.0172373
0.0198732
0.0226168
0.0250393
0.0265484
0.000146148
0.000123155
0.000130283
0.000177526
0.000257912
0.000365522
0.000495398
0.000643196
0.00080526
0.000978641
0.00116104
0.00135079
0.00154677
0.00174826
0.00195489
0.0021665
0.0023831
0.00260481
0.00283183
0.00306441
0.00330283
0.00354738
0.00379829
0.00405576
0.00431986
0.00459053
0.00486755
0.00515056
0.00543904
0.00573245
0.00603027
0.00633229
0.0066388
0.00695116
0.00727242
0.00760854
0.00797002
0.00837445
0.00884993
0.00943933
0.0102048
0.0112305
0.0126196
0.0144805
0.0168956
0.0198732
0.0232944
0.0268626
0.0300544
0.0320835
0.000146435
0.000123461
0.000130733
0.000178266
0.000259034
0.000367074
0.000497388
0.000645591
0.000807994
0.000981614
0.00116412
0.0013538
0.00154948
0.00175041
0.00195614
0.00216645
0.00238127
0.00260062
0.00282461
0.00305343
0.00328728
0.00352641
0.00377105
0.00402146
0.00427784
0.00454035
0.00480905
0.00508396
0.005365
0.00565212
0.00594537
0.00624512
0.00655246
0.00686973
0.00720152
0.00755612
0.00794776
0.00839985
0.00894937
0.009652
0.0105872
0.0118602
0.0135966
0.0159226
0.0189278
0.0226168
0.0268626
0.0313595
0.035528
0.0383227
0.000146639
0.000123681
0.000131058
0.000178799
0.000259842
0.000368195
0.000498827
0.000647329
0.000809988
0.000983796
0.0011664
0.00135606
0.00155157
0.00175215
0.0019573
0.00216676
0.00238038
0.00259813
0.00282005
0.00304625
0.00327687
0.00351211
0.00375218
0.00399733
0.00424783
0.00450397
0.004766
0.0050342
0.00530886
0.00559033
0.00587915
0.0061763
0.00648356
0.00680428
0.00714445
0.00751455
0.0079323
0.00842652
0.00904228
0.00984679
0.0109346
0.0124288
0.0144726
0.0172051
0.0207231
0.0250393
0.0300544
0.035528
0.040954
0.0450628
0.00014675
0.0001238
0.000131234
0.000179089
0.000260282
0.000368804
0.00049961
0.000648278
0.00081108
0.000984997
0.00116766
0.00135732
0.00155276
0.00175316
0.00195803
0.00216704
0.00238004
0.00259696
0.0028178
0.00304262
0.00327152
0.00350466
0.00374223
0.00398448
0.0042317
0.00448421
0.00474238
0.00500663
0.00527743
0.00555539
0.00584136
0.00613667
0.00644359
0.00676609
0.00711109
0.00749051
0.00792429
0.00844473
0.00910203
0.00997063
0.0111543
0.0127867
0.0150208
0.0180032
0.0218368
0.0265484
0.0320835
0.0383227
0.0450628
0.0516235
)
;

boundaryField
{
    bottomWall
    {
        type            nutkWallFunction;
        Cmu             0.09;
        kappa           0.41;
        E               9.8;
        value           uniform 0;
    }
    leftWall
    {
        type            nutkWallFunction;
        Cmu             0.09;
        kappa           0.41;
        E               9.8;
        value           uniform 0;
    }
    topSym
    {
        type            symmetryPlane;
    }
    rightSym
    {
        type            symmetryPlane;
    }
    inlet
    {
        type            cyclic;
    }
    outlet
    {
        type            cyclic;
    }
}


// ************************************************************************* //
