/*--------------------------------*- C++ -*----------------------------------*\
| =========                 |                                                 |
| \\      /  F ield         | OpenFOAM: The Open Source CFD Toolbox           |
|  \\    /   O peration     | Version:  v1912                                 |
|   \\  /    A nd           | Website:  www.openfoam.com                      |
|    \\/     M anipulation  |                                                 |
\*---------------------------------------------------------------------------*/
FoamFile
{
    version     2.0;
    format      ascii;
    class       volScalarField;
    location    "9000";
    object      p;
}
// * * * * * * * * * * * * * * * * * * * * * * * * * * * * * * * * * * * * * //

dimensions      [0 2 -2 0 0 0 0];


internalField   nonuniform List<scalar> 
2500
(
1.74069e-12
7.23855e-08
2.70179e-07
6.05951e-07
1.14407e-06
2.00987e-06
3.35769e-06
5.32432e-06
7.9839e-06
1.13303e-05
1.52851e-05
1.972e-05
2.44833e-05
2.94219e-05
3.43973e-05
3.92935e-05
4.40189e-05
4.85046e-05
5.27003e-05
5.65696e-05
6.00851e-05
6.32234e-05
6.59622e-05
6.8277e-05
7.01389e-05
7.15138e-05
7.23617e-05
7.26362e-05
7.22863e-05
7.12564e-05
6.94889e-05
6.69264e-05
6.3514e-05
5.92039e-05
5.39584e-05
4.77557e-05
4.05953e-05
3.25038e-05
2.35382e-05
1.37914e-05
3.40567e-06
-7.43177e-06
-1.8475e-05
-2.94406e-05
-3.99817e-05
-4.97511e-05
-5.83332e-05
-6.53895e-05
-7.04674e-05
-7.32547e-05
7.23855e-08
9.9168e-08
2.70625e-07
5.73542e-07
1.05086e-06
1.81892e-06
3.02753e-06
4.81068e-06
7.24486e-06
1.03345e-05
1.40173e-05
1.81815e-05
2.26874e-05
2.73891e-05
3.21499e-05
3.68523e-05
4.14011e-05
4.57239e-05
4.97671e-05
5.34917e-05
5.68687e-05
5.98742e-05
6.24856e-05
6.46788e-05
6.64258e-05
6.76933e-05
6.84419e-05
6.86265e-05
6.81967e-05
6.70977e-05
6.52726e-05
6.26643e-05
5.92186e-05
5.48874e-05
4.96333e-05
4.34343e-05
3.62893e-05
2.82242e-05
1.92952e-05
9.59385e-06
-7.39054e-07
-1.15183e-05
-2.25e-05
-3.34033e-05
-4.38836e-05
-5.35964e-05
-6.21285e-05
-6.91436e-05
-7.41908e-05
-7.69884e-05
2.70179e-07
2.70625e-07
5.04894e-07
9.42126e-07
1.62356e-06
2.67887e-06
4.28461e-06
6.60418e-06
9.73414e-06
1.36916e-05
1.84225e-05
2.38185e-05
2.97374e-05
3.60252e-05
4.25327e-05
4.91272e-05
5.56983e-05
6.21588e-05
6.84424e-05
7.44993e-05
8.02916e-05
8.57881e-05
9.09602e-05
9.57786e-05
0.00010021
0.000104217
0.000107756
0.000110775
0.000113219
0.000115027
0.000116136
0.000116481
0.000115999
0.000114632
0.000112333
0.000109068
0.000104823
9.96103e-05
9.34696e-05
8.64758e-05
7.87514e-05
7.04613e-05
6.18275e-05
5.31074e-05
4.46193e-05
3.66785e-05
2.96644e-05
2.38737e-05
1.97087e-05
1.73768e-05
6.05951e-07
5.73542e-07
9.42126e-07
1.73918e-06
3.11277e-06
5.28726e-06
8.50161e-06
1.2964e-05
1.87898e-05
2.59887e-05
3.44801e-05
4.41166e-05
5.4712e-05
6.6066e-05
7.79833e-05
9.0287e-05
0.000102826
0.000115474
0.000128134
0.000140727
0.000153189
0.000165469
0.000177519
0.000189294
0.000200746
0.000211823
0.000222467
0.000232614
0.000242194
0.000251134
0.000259353
0.000266771
0.000273308
0.000278887
0.000283439
0.000286909
0.000289258
0.000290469
0.000290556
0.00028956
0.000287571
0.000284715
0.000281175
0.000277165
0.000272953
0.0002688
0.000265019
0.000261829
0.000259533
0.000258212
1.14407e-06
1.05086e-06
1.62356e-06
3.11277e-06
6.07022e-06
1.10664e-05
1.8411e-05
2.81864e-05
4.03367e-05
5.47211e-05
7.11321e-05
8.93139e-05
0.000108989
0.000129877
0.000151713
0.000174255
0.000197292
0.000220641
0.000244148
0.000267688
0.000291154
0.000314455
0.00033751
0.000360245
0.000382587
0.000404462
0.000425794
0.0004465
0.000466496
0.00048569
0.00050399
0.000521298
0.000537518
0.000552558
0.000566329
0.000578756
0.000589776
0.000599349
0.000607461
0.000614126
0.000619399
0.000623372
0.000626187
0.000628014
0.000629072
0.000629562
0.000629727
0.000629698
0.000629666
0.000629596
2.00987e-06
1.81892e-06
2.67887e-06
5.28726e-06
1.10664e-05
2.13794e-05
3.65436e-05
5.59683e-05
7.88579e-05
0.000104589
0.000132696
0.000162799
0.000194562
0.000227685
0.00026189
0.000296918
0.000332529
0.000368502
0.000404638
0.000440758
0.000476703
0.000512331
0.000547518
0.000582149
0.000616119
0.000649326
0.000681674
0.000713066
0.000743406
0.000772595
0.000800535
0.000827127
0.000852273
0.000875878
0.000897855
0.000918125
0.000936621
0.000953299
0.000968136
0.00098114
0.000992354
0.00100185
0.00100976
0.00101623
0.00102144
0.00102557
0.0010288
0.00103122
0.00103293
0.00103383
3.35769e-06
3.02753e-06
4.28461e-06
8.50161e-06
1.8411e-05
3.65436e-05
6.29979e-05
9.56798e-05
0.000132252
0.000171238
0.000211893
0.000253837
0.000296855
0.0003408
0.000385541
0.000430935
0.00047682
0.000523015
0.000569323
0.000615544
0.00066148
0.00070694
0.000751746
0.000795733
0.00083875
0.000880658
0.00092133
0.000960648
0.000998503
0.00103479
0.00106941
0.00110228
0.00113329
0.00116239
0.00118948
0.00121451
0.00123742
0.0012582
0.00127683
0.00129333
0.00130775
0.00132018
0.00133075
0.0013396
0.00134692
0.00135286
0.00135761
0.00136123
0.00136378
0.00136513
5.32432e-06
4.81068e-06
6.60418e-06
1.2964e-05
2.81864e-05
5.59683e-05
9.56798e-05
0.000142941
0.000193324
0.000244391
0.000295284
0.000345858
0.000396228
0.000446582
0.000497091
0.000547869
0.000598956
0.000650312
0.000701834
0.000753365
0.000804711
0.000855657
0.000905981
0.000955461
0.00100389
0.00105106
0.00109679
0.00114092
0.00118331
0.00122382
0.00126234
0.00129876
0.00133301
0.001365
0.00139469
0.00142203
0.00144699
0.00146955
0.00148975
0.00150763
0.00152326
0.00153673
0.0015482
0.00155782
0.00156579
0.00157228
0.00157746
0.00158139
0.00158417
0.00158562
7.9839e-06
7.24486e-06
9.73414e-06
1.87898e-05
4.03367e-05
7.88579e-05
0.000132252
0.000193324
0.000255535
0.000315769
0.000373363
0.000428627
0.000482124
0.000534434
0.000586069
0.000637437
0.000688834
0.000740439
0.000792318
0.000844442
0.000896697
0.000948907
0.00100085
0.00105228
0.00110292
0.00115252
0.00120082
0.00124757
0.00129257
0.0013356
0.00137651
0.00141516
0.00145142
0.00148521
0.00151646
0.00154513
0.00157121
0.00159469
0.00161563
0.00163409
0.00165016
0.00166397
0.00167568
0.00168547
0.00169353
0.00170006
0.00170526
0.00170918
0.00171194
0.00171335
1.13303e-05
1.03345e-05
1.36916e-05
2.59887e-05
5.47211e-05
0.000104589
0.000171238
0.000244391
0.000315769
0.000382107
0.000443292
0.000500237
0.000553977
0.000605432
0.000655371
0.000704423
0.000753091
0.000801754
0.000850676
0.000900004
0.000949777
0.000999937
0.00105035
0.00110079
0.00115102
0.00120073
0.00124961
0.00129735
0.00134364
0.0013882
0.00143076
0.00147111
0.00150904
0.00154442
0.00157712
0.00160709
0.00163429
0.00165872
0.00168043
0.00169949
0.00171603
0.00173018
0.00174212
0.00175204
0.00176018
0.00176673
0.0017719
0.00177577
0.00177848
0.00177986
1.52851e-05
1.40173e-05
1.84225e-05
3.44801e-05
7.11321e-05
0.000132696
0.000211893
0.000295284
0.000373363
0.000443292
0.000505826
0.000562574
0.00061502
0.000664348
0.000711481
0.000757151
0.000801955
0.000846384
0.000890837
0.000935619
0.000980937
0.0010269
0.00107352
0.00112071
0.0011683
0.00121604
0.00126365
0.00131077
0.00135704
0.0014021
0.00144558
0.00148716
0.00152654
0.00156347
0.00159775
0.00162924
0.00165786
0.00168356
0.00170638
0.00172639
0.0017437
0.00175847
0.00177089
0.00178116
0.00178955
0.00179625
0.0018015
0.00180541
0.00180811
0.00180949
1.972e-05
1.81815e-05
2.38185e-05
4.41166e-05
8.93139e-05
0.000162799
0.000253837
0.000345858
0.000428627
0.000500237
0.000562574
0.000617994
0.000668391
0.000715156
0.000759298
0.000801567
0.000842553
0.000882753
0.000922603
0.000962483
0.00100272
0.00104356
0.00108518
0.00112766
0.00117099
0.00121505
0.00125965
0.0013045
0.00134925
0.00139352
0.00143688
0.00147891
0.00151921
0.00155742
0.00159321
0.00162633
0.00165659
0.00168388
0.00170817
0.0017295
0.00174796
0.0017637
0.00177691
0.00178781
0.00179667
0.00180371
0.0018092
0.00181325
0.00181603
0.00181744
2.44833e-05
2.26874e-05
2.97374e-05
5.4712e-05
0.000108989
0.000194562
0.000296855
0.000396228
0.000482124
0.000553977
0.00061502
0.000668391
0.000716345
0.000760432
0.000801708
0.000840907
0.000878564
0.000915113
0.000950941
0.000986415
0.00102188
0.00105768
0.00109408
0.00113133
0.00116955
0.00120883
0.0012491
0.00129024
0.00133199
0.00137403
0.00141596
0.00145733
0.00149766
0.00153648
0.00157336
0.0016079
0.0016398
0.00166882
0.00169482
0.00171777
0.0017377
0.00175473
0.00176904
0.00178085
0.00179043
0.00179801
0.00180389
0.00180821
0.00181115
0.00181264
2.94219e-05
2.73891e-05
3.60252e-05
6.6066e-05
0.000129877
0.000227685
0.0003408
0.000446582
0.000534434
0.000605432
0.000664348
0.000715156
0.000760432
0.00080182
0.000840395
0.00087686
0.000911692
0.000945241
0.000977805
0.00100967
0.00104115
0.00107256
0.00110422
0.00113644
0.0011695
0.00120359
0.00123886
0.00127533
0.00131292
0.00135144
0.0013906
0.00143001
0.00146919
0.00150764
0.00154483
0.00158025
0.00161346
0.00164407
0.00167181
0.00169652
0.00171816
0.00173675
0.00175243
0.00176541
0.00177593
0.00178426
0.00179069
0.00179539
0.00179858
0.00180018
3.43973e-05
3.21499e-05
4.25327e-05
7.79833e-05
0.000151713
0.00026189
0.000385541
0.000497091
0.000586069
0.000655371
0.000711481
0.000759298
0.000801708
0.000840395
0.000876399
0.000910382
0.000942766
0.000973827
0.00100377
0.0010328
0.00106112
0.001089
0.00111671
0.00114458
0.00117293
0.00120207
0.00123226
0.00126369
0.00129645
0.00133054
0.00136583
0.00140206
0.00143886
0.00147575
0.00151221
0.00154766
0.00158153
0.00161332
0.00164256
0.00166899
0.0016924
0.00171271
0.00172998
0.00174434
0.00175603
0.0017653
0.00177244
0.00177765
0.00178116
0.00178292
3.92935e-05
3.68523e-05
4.91272e-05
9.0287e-05
0.000174255
0.000296918
0.000430935
0.000547869
0.000637437
0.000704423
0.000757151
0.000801567
0.000840907
0.00087686
0.000910382
0.000942056
0.000972244
0.00100116
0.00102895
0.00105571
0.00108158
0.0011067
0.00113129
0.00115563
0.00118002
0.0012048
0.0012303
0.00125683
0.00128462
0.00131385
0.00134456
0.00137669
0.00141001
0.0014442
0.00147877
0.00151319
0.00154683
0.00157909
0.00160936
0.00163721
0.00166228
0.00168434
0.0017033
0.00171921
0.00173225
0.00174263
0.00175064
0.00175648
0.0017604
0.00176236
4.40189e-05
4.14011e-05
5.56983e-05
0.000102826
0.000197292
0.000332529
0.00047682
0.000598956
0.000688834
0.000753091
0.000801955
0.000842553
0.000878564
0.000911692
0.000942766
0.000972244
0.0010004
0.0010274
0.00105332
0.00107821
0.0011021
0.00112507
0.00114725
0.00116882
0.00119004
0.0012112
0.00123266
0.00125477
0.00127787
0.00130224
0.00132812
0.0013556
0.00138468
0.00141519
0.00144681
0.0014791
0.00151147
0.00154328
0.00157386
0.00160261
0.00162901
0.00165265
0.0016733
0.00169084
0.00170536
0.001717
0.00172602
0.00173261
0.00173704
0.00173925
4.85046e-05
4.57239e-05
6.21588e-05
0.000115474
0.000220641
0.000368502
0.000523015
0.000650312
0.000740439
0.000801754
0.000846384
0.000882753
0.000915113
0.000945241
0.000973827
0.00100116
0.0010274
0.00105262
0.00107685
0.0011001
0.00112234
0.00114358
0.00116386
0.00118328
0.00120201
0.00122028
0.00123842
0.00125675
0.00127567
0.00129554
0.0013167
0.00133941
0.00136384
0.00139002
0.00141783
0.00144698
0.00147703
0.00150739
0.00153738
0.00156628
0.00159348
0.00161837
0.00164052
0.00165967
0.00167573
0.00168874
0.00169889
0.00170635
0.00171136
0.00171388
5.27003e-05
4.97671e-05
6.84424e-05
0.000128134
0.000244148
0.000404638
0.000569323
0.000701834
0.000792318
0.000850676
0.000890837
0.000922603
0.000950941
0.000977805
0.00100377
0.00102895
0.00105332
0.00107685
0.00109951
0.00112126
0.00114204
0.00116181
0.00118054
0.00119824
0.00121502
0.00123102
0.00124649
0.00126173
0.0012771
0.00129299
0.00130981
0.00132793
0.00134765
0.00136919
0.00139264
0.00141789
0.0014447
0.00147261
0.00150102
0.0015292
0.00155646
0.00158206
0.00160538
0.00162595
0.0016435
0.00165792
0.0016693
0.00167772
0.00168341
0.00168627
5.65696e-05
5.34917e-05
7.44993e-05
0.000140727
0.000267688
0.000440758
0.000615544
0.000753365
0.000844442
0.000900004
0.000935619
0.000962483
0.000986415
0.00100967
0.0010328
0.00105571
0.00107821
0.0011001
0.00112126
0.0011416
0.00116103
0.00117947
0.00119685
0.00121313
0.00122833
0.00124252
0.00125587
0.00126862
0.00128106
0.00129358
0.00130658
0.0013205
0.00133574
0.00135264
0.00137147
0.00139235
0.00141521
0.00143981
0.00146568
0.00149221
0.00151867
0.00154427
0.00156823
0.00158988
0.00160876
0.00162455
0.00163718
0.00164663
0.00165306
0.00165631
6.00851e-05
5.68687e-05
8.02916e-05
0.000153189
0.000291154
0.000476703
0.00066148
0.000804711
0.000896697
0.000949777
0.000980937
0.00100272
0.00102188
0.00104115
0.00106112
0.00108158
0.0011021
0.00112234
0.00114204
0.00116103
0.00117918
0.00119637
0.00121251
0.00122753
0.00124139
0.0012541
0.00126574
0.00127647
0.00128654
0.00129625
0.00130601
0.00131623
0.00132737
0.00133988
0.00135413
0.00137042
0.0013889
0.00140953
0.00143206
0.00145602
0.00148077
0.00150554
0.00152946
0.0015517
0.00157158
0.00158857
0.00160241
0.00161292
0.00162012
0.0016238
6.32234e-05
5.98742e-05
8.57881e-05
0.000165469
0.000314455
0.000512331
0.00070694
0.000855657
0.000948907
0.000999937
0.0010269
0.00104356
0.00105768
0.00107256
0.001089
0.0011067
0.00112507
0.00114358
0.00116181
0.00117947
0.00119637
0.00121236
0.00122732
0.00124116
0.00125381
0.00126523
0.00127544
0.00128452
0.00129264
0.00130005
0.00130708
0.00131414
0.00132167
0.00133016
0.00134007
0.00135182
0.00136575
0.001382
0.00140057
0.00142117
0.00144334
0.0014664
0.00148948
0.00151166
0.00153207
0.00154998
0.00156488
0.00157638
0.00158438
0.00158849
6.59622e-05
6.24856e-05
9.09602e-05
0.000177519
0.00033751
0.000547518
0.000751746
0.000905981
0.00100085
0.00105035
0.00107352
0.00108518
0.00109408
0.00110422
0.00111671
0.00113129
0.00114725
0.00116386
0.00118054
0.00119685
0.00121251
0.00122732
0.00124113
0.00125384
0.00126534
0.00127557
0.0012845
0.00129217
0.00129866
0.00130416
0.00130892
0.00131329
0.0013177
0.00132262
0.00132856
0.00133601
0.00134542
0.00135714
0.00137135
0.001388
0.00140683
0.00142733
0.00144872
0.00147008
0.00149041
0.0015088
0.00152448
0.00153685
0.00154558
0.00155012
6.8277e-05
6.46788e-05
9.57786e-05
0.000189294
0.000360245
0.000582149
0.000795733
0.000955461
0.00105228
0.00110079
0.00112071
0.00112766
0.00113133
0.00113644
0.00114458
0.00115563
0.00116882
0.00118328
0.00119824
0.00121313
0.00122753
0.00124116
0.00125384
0.00126541
0.00127578
0.00128486
0.0012926
0.00129898
0.00130404
0.0013079
0.00131075
0.00131286
0.00131459
0.0013164
0.00131879
0.00132227
0.00132739
0.00133462
0.00134429
0.00135661
0.0013715
0.00138868
0.00140757
0.00142728
0.00144682
0.0014651
0.00148117
0.00149417
0.00150351
0.00150842
7.01389e-05
6.64258e-05
0.00010021
0.000200746
0.000382587
0.000616119
0.00083875
0.00100389
0.00110292
0.00115102
0.0011683
0.00117099
0.00116955
0.0011695
0.00117293
0.00118002
0.00119004
0.00120201
0.00121502
0.00122833
0.00124139
0.00125381
0.00126534
0.00127578
0.00128501
0.00129294
0.0012995
0.00130466
0.0013084
0.0013108
0.00131197
0.00131212
0.00131156
0.00131067
0.00130993
0.00130984
0.00131098
0.0013139
0.00131907
0.00132686
0.00133742
0.00135069
0.00136631
0.00138357
0.00140152
0.00141902
0.00143496
0.00144821
0.00145795
0.00146315
7.15138e-05
6.76933e-05
0.000104217
0.000211823
0.000404462
0.000649326
0.000880658
0.00105106
0.00115252
0.00120073
0.00121604
0.00121505
0.00120883
0.00120359
0.00120207
0.0012048
0.0012112
0.00122028
0.00123102
0.00124252
0.0012541
0.00126523
0.00127557
0.00128486
0.00129294
0.00129971
0.00130508
0.00130901
0.00131146
0.00131247
0.00131211
0.00131053
0.00130795
0.00130471
0.00130121
0.00129794
0.00129546
0.00129434
0.00129517
0.00129842
0.00130445
0.00131339
0.00132513
0.00133919
0.00135475
0.00137072
0.00138588
0.00139892
0.00140876
0.00141409
7.23617e-05
6.84419e-05
0.000107756
0.000222467
0.000425794
0.000681674
0.00092133
0.00109679
0.00120082
0.00124961
0.00126365
0.00125965
0.0012491
0.00123886
0.00123226
0.0012303
0.00123266
0.00123842
0.00124649
0.00125587
0.00126574
0.00127544
0.0012845
0.0012926
0.0012995
0.00130508
0.00130923
0.0013119
0.00131306
0.0013127
0.00131087
0.00130766
0.00130325
0.0012979
0.00129195
0.00128583
0.00128008
0.00127526
0.00127198
0.00127082
0.00127226
0.00127663
0.00128405
0.00129427
0.00130669
0.00132034
0.00133401
0.00134627
0.0013558
0.00136107
7.26362e-05
6.86265e-05
0.000110775
0.000232614
0.0004465
0.000713066
0.000960648
0.00114092
0.00124757
0.00129735
0.00131077
0.0013045
0.00129024
0.00127533
0.00126369
0.00125683
0.00125477
0.00125675
0.00126173
0.00126862
0.00127647
0.00128452
0.00129217
0.00129898
0.00130466
0.00130901
0.0013119
0.00131328
0.00131309
0.00131133
0.00130802
0.00130323
0.00129708
0.00128977
0.00128158
0.00127289
0.00126417
0.00125595
0.00124885
0.00124347
0.0012404
0.00124011
0.00124291
0.0012488
0.00125743
0.00126801
0.00127944
0.00129025
0.00129899
0.00130394
7.22863e-05
6.81967e-05
0.000113219
0.000242194
0.000466496
0.000743406
0.000998503
0.00118331
0.00129257
0.00134364
0.00135704
0.00134925
0.00133199
0.00131292
0.00129645
0.00128462
0.00127787
0.00127567
0.0012771
0.00128106
0.00128654
0.00129264
0.00129866
0.00130404
0.0013084
0.00131146
0.00131306
0.00131309
0.0013115
0.00130828
0.00130344
0.00129704
0.00128916
0.00127996
0.00126966
0.00125858
0.00124712
0.00123577
0.0012251
0.00121574
0.00120831
0.00120338
0.00120141
0.00120263
0.00120692
0.00121376
0.0012222
0.00123088
0.00123829
0.0012426
7.12564e-05
6.70977e-05
0.000115027
0.000251134
0.00048569
0.000772595
0.00103479
0.00122382
0.0013356
0.0013882
0.0014021
0.00139352
0.00137403
0.00135144
0.00133054
0.00131385
0.00130224
0.00129554
0.00129299
0.00129358
0.00129625
0.00130005
0.00130416
0.0013079
0.0013108
0.00131247
0.0013127
0.00131133
0.00130828
0.00130353
0.0012971
0.00128901
0.00127936
0.00126825
0.00125588
0.00124249
0.00122843
0.00121414
0.00120013
0.001187
0.00117538
0.0011659
0.00115912
0.00115545
0.001155
0.00115752
0.00116229
0.00116813
0.00117363
0.00117698
6.94889e-05
6.52726e-05
0.000116136
0.000259353
0.00050399
0.000800535
0.00106941
0.00126234
0.00137651
0.00143076
0.00144558
0.00143688
0.00141596
0.0013906
0.00136583
0.00134456
0.00132812
0.0013167
0.00130981
0.00130658
0.00130601
0.00130708
0.00130892
0.00131075
0.00131197
0.00131211
0.00131087
0.00130802
0.00130344
0.0012971
0.00128898
0.00127912
0.0012676
0.00125451
0.00124002
0.00122433
0.00120772
0.00119059
0.00117338
0.00115664
0.00114099
0.00112708
0.0011155
0.00110682
0.00110136
0.00109908
0.00109958
0.00110194
0.00110496
0.00110698
6.69264e-05
6.26643e-05
0.000116481
0.000266771
0.000521298
0.000827127
0.00110228
0.00129876
0.00141516
0.00147111
0.00148716
0.00147891
0.00145733
0.00143001
0.00140206
0.00137669
0.0013556
0.00133941
0.00132793
0.0013205
0.00131623
0.00131414
0.00131329
0.00131286
0.00131212
0.00131053
0.00130766
0.00130323
0.00129704
0.00128901
0.00127912
0.00126739
0.00125389
0.00123871
0.00122199
0.00120392
0.00118473
0.00116476
0.0011444
0.00112414
0.00110456
0.00108629
0.00106997
0.00105622
0.00104553
0.0010381
0.00103383
0.00103211
0.0010321
0.00103247
6.3514e-05
5.92186e-05
0.000115999
0.000273308
0.000537518
0.000852273
0.00113329
0.00133301
0.00145142
0.00150904
0.00152654
0.00151921
0.00149766
0.00146919
0.00143886
0.00141001
0.00138468
0.00136384
0.00134765
0.00133574
0.00132737
0.00132167
0.0013177
0.00131459
0.00131156
0.00130795
0.00130325
0.00129708
0.00128916
0.00127936
0.0012676
0.00125389
0.00123828
0.00122087
0.00120178
0.00118119
0.0011593
0.0011364
0.00111284
0.00108905
0.00106557
0.00104297
0.0010219
0.00100302
0.000986942
0.000974079
0.0009646
0.000958299
0.000954767
0.000953161
5.92039e-05
5.48874e-05
0.000114632
0.000278887
0.000552558
0.000875878
0.00116239
0.001365
0.00148521
0.00154442
0.00156347
0.00155742
0.00153648
0.00150764
0.00147575
0.0014442
0.00141519
0.00139002
0.00136919
0.00135264
0.00133988
0.00133016
0.00132262
0.0013164
0.00131067
0.00130471
0.0012979
0.00128977
0.00127996
0.00126825
0.00125451
0.00123871
0.00122087
0.00120107
0.00117945
0.00115615
0.00113138
0.00110538
0.00107847
0.00105104
0.00102354
0.000996543
0.000970655
0.000946542
0.000924907
0.000906337
0.000891278
0.000879938
0.00087244
0.000868564
5.39584e-05
4.96333e-05
0.000112333
0.000283439
0.000566329
0.000897855
0.00118948
0.00139469
0.00151646
0.00157712
0.00159775
0.00159321
0.00157336
0.00154483
0.00151221
0.00147877
0.00144681
0.00141783
0.00139264
0.00137147
0.00135413
0.00134007
0.00132856
0.00131879
0.00130993
0.00130121
0.00129195
0.00128158
0.00126966
0.00125588
0.00124002
0.00122199
0.00120178
0.00117945
0.0011551
0.00112888
0.00110099
0.00107166
0.00104116
0.00100985
0.000978136
0.000946528
0.000915616
0.000886062
0.000858616
0.00083402
0.000812993
0.000796173
0.000784294
0.000777878
4.77557e-05
4.34343e-05
0.000109068
0.000286909
0.000578756
0.000918125
0.00121451
0.00142203
0.00154513
0.00160709
0.00162924
0.00162633
0.0016079
0.00158025
0.00154766
0.00151319
0.0014791
0.00144698
0.00141789
0.00139235
0.00137042
0.00135182
0.00133601
0.00132227
0.00130984
0.00129794
0.00128583
0.00127289
0.00125858
0.00124249
0.00122433
0.00120392
0.00118119
0.00115615
0.00112888
0.00109953
0.00106825
0.00103528
0.00100087
0.000965339
0.000929055
0.000892484
0.000856181
0.000820804
0.000787134
0.000756066
0.000728595
0.000705819
0.000689147
0.000679933
4.05953e-05
3.62893e-05
0.000104823
0.000289258
0.000589776
0.000936621
0.00123742
0.00144699
0.00157121
0.00163429
0.00165786
0.00165659
0.0016398
0.00161346
0.00158153
0.00154683
0.00151147
0.00147703
0.0014447
0.00141521
0.0013889
0.00136575
0.00134542
0.00132739
0.00131098
0.00129546
0.00128008
0.00126417
0.00124712
0.00122843
0.00120772
0.00118473
0.0011593
0.00113138
0.00110099
0.00106825
0.00103331
0.00099636
0.000957643
0.00091744
0.000876092
0.000834018
0.000791744
0.000749923
0.000709384
0.00067119
0.000636653
0.000607381
0.000585513
0.000573277
3.25038e-05
2.82242e-05
9.96103e-05
0.000290469
0.000599349
0.000953299
0.0012582
0.00146955
0.00159469
0.00165872
0.00168356
0.00168388
0.00166882
0.00164407
0.00161332
0.00157909
0.00154328
0.00150739
0.00147261
0.00143981
0.00140953
0.001382
0.00135714
0.00133462
0.0013139
0.00129434
0.00127526
0.00125595
0.00123577
0.00121414
0.00119059
0.00116476
0.0011364
0.00110538
0.00107166
0.00103528
0.00099636
0.000955054
0.000911567
0.000866145
0.000819087
0.000770768
0.000721683
0.000672505
0.000624159
0.00057794
0.000535575
0.000499271
0.000471925
0.000456562
2.35382e-05
1.92952e-05
9.34696e-05
0.000290556
0.000607461
0.000968136
0.00127683
0.00148975
0.00161563
0.00168043
0.00170638
0.00170817
0.00169482
0.00167181
0.00164256
0.00160936
0.00157386
0.00153738
0.00150102
0.00146568
0.00143206
0.00140057
0.00137135
0.00134429
0.00131907
0.00129517
0.00127198
0.00124885
0.0012251
0.00120013
0.00117338
0.0011444
0.00111284
0.00107847
0.00104116
0.00100087
0.000957643
0.000911567
0.00086279
0.000811497
0.000757922
0.000702388
0.000645371
0.000587606
0.000530226
0.000474912
0.000423996
0.0003804
0.000347707
0.000329434
1.37914e-05
9.59385e-06
8.64758e-05
0.00028956
0.000614126
0.00098114
0.00129333
0.00150763
0.00163409
0.00169949
0.00172639
0.0017295
0.00171777
0.00169652
0.00166899
0.00163721
0.00160261
0.00156628
0.0015292
0.00149221
0.00145602
0.00142117
0.001388
0.00135661
0.00132686
0.00129842
0.00127082
0.00124347
0.00121574
0.001187
0.00115664
0.00112414
0.00108905
0.00105104
0.00100985
0.000965339
0.00091744
0.000866145
0.000811497
0.000753574
0.000692514
0.00062857
0.00056223
0.0004944
0.000426627
0.000361288
0.000301601
0.000251279
0.00021428
0.000193925
3.40567e-06
-7.39054e-07
7.87514e-05
0.000287571
0.000619399
0.000992354
0.00130775
0.00152326
0.00165016
0.00171603
0.0017437
0.00174796
0.0017377
0.00171816
0.0016924
0.00166228
0.00162901
0.00159348
0.00155646
0.00151867
0.00148077
0.00144334
0.00140683
0.0013715
0.00133742
0.00130445
0.00127226
0.0012404
0.00120831
0.00117538
0.00114099
0.00110456
0.00106557
0.00102354
0.000978136
0.000929055
0.000876092
0.000819087
0.000757922
0.000692514
0.000622858
0.000549135
0.00047193
0.000392545
0.000313331
0.000237821
0.000170408
0.000115444
7.65454e-05
5.57601e-05
-7.43177e-06
-1.15183e-05
7.04613e-05
0.000284715
0.000623372
0.00100185
0.00132018
0.00153673
0.00166397
0.00173018
0.00175847
0.0017637
0.00175473
0.00173675
0.00171271
0.00168434
0.00165265
0.00161837
0.00158206
0.00154427
0.00150554
0.0014664
0.00142733
0.00138868
0.00135069
0.00131339
0.00127663
0.00124011
0.00120338
0.0011659
0.00112708
0.00108629
0.00104297
0.000996543
0.000946528
0.000892484
0.000834018
0.000770768
0.000702388
0.00062857
0.000549135
0.000464244
0.000374787
0.000282879
0.000192253
0.000108098
3.60118e-05
-1.96546e-05
-5.67818e-05
-7.57321e-05
-1.8475e-05
-2.25e-05
6.18275e-05
0.000281175
0.000626187
0.00100976
0.00133075
0.0015482
0.00167568
0.00174212
0.00177089
0.00177691
0.00176904
0.00175243
0.00172998
0.0017033
0.0016733
0.00164052
0.00160538
0.00156823
0.00152946
0.00148948
0.00144872
0.00140757
0.00136631
0.00132513
0.00128405
0.00124291
0.00120141
0.00115912
0.0011155
0.00106997
0.0010219
0.000970655
0.000915616
0.000856181
0.000791744
0.000721683
0.000645371
0.00056223
0.00047193
0.000374787
0.000272399
0.000168326
6.83025e-05
-2.06515e-05
-9.2336e-05
-0.000143636
-0.000175123
-0.000190124
-2.94406e-05
-3.34033e-05
5.31074e-05
0.000277165
0.000628014
0.00101623
0.0013396
0.00155782
0.00168547
0.00175204
0.00178116
0.00178781
0.00178085
0.00176541
0.00174434
0.00171921
0.00169084
0.00165967
0.00162595
0.00158988
0.0015517
0.00151166
0.00147008
0.00142728
0.00138357
0.00133919
0.00129427
0.0012488
0.00120263
0.00115545
0.00110682
0.00105622
0.00100302
0.000946542
0.000886062
0.000820804
0.000749923
0.000672505
0.000587606
0.0004944
0.000392545
0.000282879
0.000168326
5.45596e-05
-5.04189e-05
-0.000138374
-0.000203902
-0.000246492
-0.000269908
-0.000279941
-3.99817e-05
-4.38836e-05
4.46193e-05
0.000272953
0.000629072
0.00102144
0.00134692
0.00156579
0.00169353
0.00176018
0.00178955
0.00179667
0.00179043
0.00177593
0.00175603
0.00173225
0.00170536
0.00167573
0.0016435
0.00160876
0.00157158
0.00153207
0.00149041
0.00144682
0.00140152
0.00135475
0.00130669
0.00125743
0.00120692
0.001155
0.00110136
0.00104553
0.000986942
0.000924907
0.000858616
0.000787134
0.000709384
0.000624159
0.000530226
0.000426627
0.000313331
0.000192253
6.83025e-05
-5.04189e-05
-0.000154231
-0.000235218
-0.000290415
-0.000322549
-0.00033792
-0.000343437
-4.97511e-05
-5.35964e-05
3.66785e-05
0.0002688
0.000629562
0.00102557
0.00135286
0.00157228
0.00170006
0.00176673
0.00179625
0.00180371
0.00179801
0.00178426
0.0017653
0.00174263
0.001717
0.00168874
0.00165792
0.00162455
0.00158857
0.00154998
0.0015088
0.0014651
0.00141902
0.00137072
0.00132034
0.00126801
0.00121376
0.00115752
0.00109908
0.0010381
0.000974079
0.000906337
0.00083402
0.000756066
0.00067119
0.00057794
0.000474912
0.000361288
0.000237821
0.000108098
-2.06515e-05
-0.000138374
-0.000235218
-0.000305406
-0.000349297
-0.000372259
-0.000381641
-0.000384092
-5.83332e-05
-6.21285e-05
2.96644e-05
0.000265019
0.000629727
0.0010288
0.00135761
0.00157746
0.00170526
0.0017719
0.0018015
0.0018092
0.00180389
0.00179069
0.00177244
0.00175064
0.00172602
0.00169889
0.0016693
0.00163718
0.00160241
0.00156488
0.00152448
0.00148117
0.00143496
0.00138588
0.00133401
0.00127944
0.0012222
0.00116229
0.00109958
0.00103383
0.0009646
0.000891278
0.000812993
0.000728595
0.000636653
0.000535575
0.000423996
0.000301601
0.000170408
3.60118e-05
-9.2336e-05
-0.000203902
-0.000290415
-0.000349297
-0.00038385
-0.000400693
-0.000406817
-0.000407814
-6.53895e-05
-6.91436e-05
2.38737e-05
0.000261829
0.000629698
0.00103122
0.00136123
0.00158139
0.00170918
0.00177577
0.00180541
0.00181325
0.00180821
0.00179539
0.00177765
0.00175648
0.00173261
0.00170635
0.00167772
0.00164663
0.00161292
0.00157638
0.00153685
0.00149417
0.00144821
0.00139892
0.00134627
0.00129025
0.00123088
0.00116813
0.00110194
0.00103211
0.000958299
0.000879938
0.000796173
0.000705819
0.000607381
0.000499271
0.0003804
0.000251279
0.000115444
-1.96546e-05
-0.000143636
-0.000246492
-0.000322549
-0.000372259
-0.000400693
-0.000414487
-0.000419574
-0.000420331
-7.04674e-05
-7.41908e-05
1.97087e-05
0.000259533
0.000629666
0.00103293
0.00136378
0.00158417
0.00171194
0.00177848
0.00180811
0.00181603
0.00181115
0.00179858
0.00178116
0.0017604
0.00173704
0.00171136
0.00168341
0.00165306
0.00162012
0.00158438
0.00154558
0.00150351
0.00145795
0.00140876
0.0013558
0.00129899
0.00123829
0.00117363
0.00110496
0.0010321
0.000954767
0.00087244
0.000784294
0.000689147
0.000585513
0.000471925
0.000347707
0.00021428
7.65454e-05
-5.67818e-05
-0.000175123
-0.000269908
-0.00033792
-0.000381641
-0.000406817
-0.000419574
-0.000424847
-0.000426039
-7.32547e-05
-7.69884e-05
1.73768e-05
0.000258212
0.000629596
0.00103383
0.00136513
0.00158562
0.00171335
0.00177986
0.00180949
0.00181744
0.00181264
0.00180018
0.00178292
0.00176236
0.00173925
0.00171388
0.00168627
0.00165631
0.0016238
0.00158849
0.00155012
0.00150842
0.00146315
0.00141409
0.00136107
0.00130394
0.0012426
0.00117698
0.00110698
0.00103247
0.000953161
0.000868564
0.000777878
0.000679933
0.000573277
0.000456562
0.000329434
0.000193925
5.57601e-05
-7.57321e-05
-0.000190124
-0.000279941
-0.000343437
-0.000384092
-0.000407814
-0.000420331
-0.000426039
-0.000427692
)
;

boundaryField
{
    bottomWall
    {
        type            zeroGradient;
    }
    leftWall
    {
        type            zeroGradient;
    }
    topSym
    {
        type            symmetryPlane;
    }
    rightSym
    {
        type            symmetryPlane;
    }
    inlet
    {
        type            cyclic;
    }
    outlet
    {
        type            cyclic;
    }
}


// ************************************************************************* //
