/*--------------------------------*- C++ -*----------------------------------*\
| =========                 |                                                 |
| \\      /  F ield         | OpenFOAM: The Open Source CFD Toolbox           |
|  \\    /   O peration     | Version:  v1912                                 |
|   \\  /    A nd           | Website:  www.openfoam.com                      |
|    \\/     M anipulation  |                                                 |
\*---------------------------------------------------------------------------*/
FoamFile
{
    version     2.0;
    format      ascii;
    class       volVectorField;
    location    "9000";
    object      U;
}
// * * * * * * * * * * * * * * * * * * * * * * * * * * * * * * * * * * * * * //

dimensions      [0 1 -1 0 0 0 0];


internalField   nonuniform List<vector> 
2500
(
(0.000968421 -1.80375e-08 -1.80375e-08)
(0.00237859 -1.49573e-08 -5.6305e-08)
(0.00376103 -2.0895e-07 -1.3851e-07)
(0.00515836 -6.99309e-07 -2.54139e-07)
(0.00659015 -1.66354e-06 -4.30389e-07)
(0.00806154 -3.18446e-06 -7.27546e-07)
(0.00956835 -5.08188e-06 -1.21988e-06)
(0.0111012 -6.88071e-06 -1.963e-06)
(0.0126485 -7.93458e-06 -2.96766e-06)
(0.0141982 -7.62901e-06 -4.20547e-06)
(0.0157395 -5.54154e-06 -5.62937e-06)
(0.0172628 -1.50943e-06 -7.19205e-06)
(0.0187608 4.3851e-06 -8.8567e-06)
(0.020228 1.18802e-05 -1.06003e-05)
(0.0216611 2.0616e-05 -1.24118e-05)
(0.0230582 3.02075e-05 -1.42881e-05)
(0.0244188 4.0297e-05 -1.62304e-05)
(0.0257432 5.05846e-05 -1.82409e-05)
(0.0270327 6.084e-05 -2.03214e-05)
(0.0282884 7.09014e-05 -2.24724e-05)
(0.0295119 8.06669e-05 -2.46924e-05)
(0.0307048 9.0082e-05 -2.69787e-05)
(0.0318683 9.91271e-05 -2.9327e-05)
(0.0330038 0.000107805 -3.17323e-05)
(0.034112 0.000116132 -3.41887e-05)
(0.0351938 0.000124127 -3.66897e-05)
(0.0362497 0.000131805 -3.92286e-05)
(0.03728 0.000139175 -4.17981e-05)
(0.0382846 0.000146232 -4.4391e-05)
(0.0392636 0.000152955 -4.69994e-05)
(0.0402166 0.000159303 -4.96155e-05)
(0.0411431 0.000165215 -5.22309e-05)
(0.0420424 0.000170603 -5.48369e-05)
(0.0429136 0.000175358 -5.74244e-05)
(0.0437557 0.00017934 -5.99836e-05)
(0.0445675 0.000182381 -6.25045e-05)
(0.0453475 0.000184288 -6.49762e-05)
(0.0460941 0.000184845 -6.73877e-05)
(0.0468057 0.00018382 -6.9727e-05)
(0.0474803 0.000180958 -7.19816e-05)
(0.0481157 0.000176004 -7.41384e-05)
(0.0487096 0.000168709 -7.61839e-05)
(0.0492594 0.00015886 -7.81035e-05)
(0.0497619 0.000146286 -7.98815e-05)
(0.0502139 0.000130905 -8.15006e-05)
(0.050611 0.000112697 -8.29402e-05)
(0.0509478 9.17762e-05 -8.41762e-05)
(0.0512174 6.82808e-05 -8.51767e-05)
(0.0514106 4.2464e-05 -8.59035e-05)
(0.0515151 1.45161e-05 -8.6217e-05)
(0.00237859 -5.6305e-08 -1.49574e-08)
(0.00608197 1.7778e-07 1.7778e-07)
(0.00978331 5.03884e-08 5.33909e-07)
(0.0135226 -5.91542e-07 1.08626e-06)
(0.0173088 -2.02567e-06 1.72577e-06)
(0.0211381 -4.3514e-06 2.15552e-06)
(0.0249981 -7.13458e-06 2.01954e-06)
(0.0288698 -9.35048e-06 1.09184e-06)
(0.0327312 -9.65752e-06 -5.98918e-07)
(0.0365595 -6.82032e-06 -2.81498e-06)
(0.0403342 -2.53348e-08 -5.23963e-06)
(0.0440376 1.09964e-05 -7.59124e-06)
(0.0476565 2.60094e-05 -9.68392e-06)
(0.0511817 4.44126e-05 -1.14379e-05)
(0.0546081 6.54084e-05 -1.28577e-05)
(0.0579341 8.81537e-05 -1.39998e-05)
(0.0611604 0.000111869 -1.49428e-05)
(0.0642897 0.000135903 -1.57654e-05)
(0.067326 0.000159754 -1.65348e-05)
(0.0702736 0.000183072 -1.73014e-05)
(0.0731369 0.000205636 -1.80985e-05)
(0.0759204 0.000227331 -1.89452e-05)
(0.0786279 0.000248117 -1.98488e-05)
(0.0812627 0.000268003 -2.08085e-05)
(0.0838278 0.000287028 -2.18182e-05)
(0.0863253 0.000305238 -2.28685e-05)
(0.0887568 0.00032267 -2.39486e-05)
(0.0911234 0.000339344 -2.5047e-05)
(0.0934258 0.00035525 -2.61523e-05)
(0.0956641 0.000370342 -2.72538e-05)
(0.0978378 0.000384529 -2.83416e-05)
(0.0999463 0.000397671 -2.94065e-05)
(0.101988 0.000409571 -3.04402e-05)
(0.103962 0.000419974 -3.14355e-05)
(0.105866 0.000428562 -3.23859e-05)
(0.107698 0.00043495 -3.32861e-05)
(0.109454 0.000438692 -3.41321e-05)
(0.111131 0.000439288 -3.49214e-05)
(0.112727 0.000436202 -3.56518e-05)
(0.114237 0.000428848 -3.63225e-05)
(0.115657 0.00041663 -3.69348e-05)
(0.116982 0.000398972 -3.74917e-05)
(0.118207 0.000375376 -3.79976e-05)
(0.119324 0.000345443 -3.84573e-05)
(0.120328 0.00030897 -3.88758e-05)
(0.121209 0.000265907 -3.92551e-05)
(0.121956 0.000216498 -3.95945e-05)
(0.122553 0.000161058 -3.98838e-05)
(0.122981 0.000100162 -4.01101e-05)
(0.123212 3.42377e-05 -4.01151e-05)
(0.00376103 -1.3851e-07 -2.0895e-07)
(0.00978331 5.33909e-07 5.03883e-08)
(0.015905 7.59523e-07 7.59523e-07)
(0.0221435 4.54558e-07 1.89923e-06)
(0.0284814 -5.98604e-07 3.17967e-06)
(0.0348874 -2.41151e-06 3.86201e-06)
(0.0413257 -4.2872e-06 3.11144e-06)
(0.0477591 -4.74896e-06 4.82431e-07)
(0.0541512 -1.96017e-06 -3.83827e-06)
(0.0604676 5.67563e-06 -9.18929e-06)
(0.0666779 1.91263e-05 -1.47587e-05)
(0.0727574 3.86178e-05 -1.98506e-05)
(0.0786877 6.37186e-05 -2.40193e-05)
(0.0844565 9.3533e-05 -2.70858e-05)
(0.0900576 0.000126922 -2.90807e-05)
(0.0954894 0.0001627 -3.01626e-05)
(0.100754 0.000199772 -3.05437e-05)
(0.105857 0.000237219 -3.04366e-05)
(0.110805 0.000274331 -3.00237e-05)
(0.115604 0.000310604 -2.9445e-05)
(0.120262 0.000345718 -2.87972e-05)
(0.124786 0.000379497 -2.81393e-05)
(0.129183 0.000411878 -2.75014e-05)
(0.133457 0.000442868 -2.68921e-05)
(0.137613 0.000472515 -2.63067e-05)
(0.141656 0.000500879 -2.57319e-05)
(0.145586 0.000528011 -2.51508e-05)
(0.149407 0.000553934 -2.45448e-05)
(0.153119 0.000578627 -2.38966e-05)
(0.156723 0.000602013 -2.31902e-05)
(0.160218 0.000623946 -2.24123e-05)
(0.163602 0.000644206 -2.15522e-05)
(0.166875 0.000662483 -2.06022e-05)
(0.170034 0.000678376 -1.95577e-05)
(0.173076 0.000691383 -1.84173e-05)
(0.175997 0.000700901 -1.7183e-05)
(0.178793 0.000706223 -1.58616e-05)
(0.18146 0.00070656 -1.44647e-05)
(0.183993 0.000701058 -1.30058e-05)
(0.186385 0.000688789 -1.15027e-05)
(0.188631 0.000668806 -9.97998e-06)
(0.190724 0.00064019 -8.46789e-06)
(0.192655 0.000602145 -7.00164e-06)
(0.194415 0.000554021 -5.61939e-06)
(0.195994 0.000495481 -4.36153e-06)
(0.197378 0.000426426 -3.26452e-06)
(0.19855 0.000347216 -2.36131e-06)
(0.199487 0.000258337 -1.66957e-06)
(0.200157 0.000160678 -1.20644e-06)
(0.20052 5.4921e-05 -9.2909e-07)
(0.00515836 -2.54139e-07 -6.99309e-07)
(0.0135226 1.08626e-06 -5.91542e-07)
(0.0221435 1.89923e-06 4.54558e-07)
(0.030981 2.16045e-06 2.16045e-06)
(0.039972 1.83579e-06 3.96396e-06)
(0.0490497 1.2385e-06 4.64386e-06)
(0.0581481 1.53012e-06 2.79031e-06)
(0.0672071 4.6475e-06 -2.21204e-06)
(0.0761746 1.27105e-05 -9.79178e-06)
(0.0850062 2.73286e-05 -1.86217e-05)
(0.0936655 4.92786e-05 -2.72408e-05)
(0.102124 7.85042e-05 -3.44829e-05)
(0.110362 0.00011428 -3.96585e-05)
(0.118367 0.000155441 -4.2548e-05)
(0.126134 0.000200617 -4.32871e-05)
(0.133661 0.000248424 -4.22217e-05)
(0.140954 0.000297601 -3.978e-05)
(0.148021 0.000347087 -3.63821e-05)
(0.154868 0.000396056 -3.23883e-05)
(0.161508 0.000443916 -2.80786e-05)
(0.167949 0.00049028 -2.36519e-05)
(0.1742 0.00053493 -1.9236e-05)
(0.180269 0.000577775 -1.49034e-05)
(0.186165 0.000618814 -1.06858e-05)
(0.191892 0.00065809 -6.58704e-06)
(0.197455 0.000695667 -2.59451e-06)
(0.202859 0.000731596 1.31381e-06)
(0.208104 0.000765893 5.16355e-06)
(0.213193 0.000798519 8.98053e-06)
(0.218125 0.000829365 1.27885e-05)
(0.222901 0.000858232 1.66077e-05)
(0.227519 0.000884821 2.04546e-05)
(0.231976 0.00090872 2.43407e-05)
(0.23627 0.000929391 2.82732e-05)
(0.240398 0.000946164 3.22536e-05)
(0.244354 0.00095823 3.6278e-05)
(0.248133 0.000964645 4.03345e-05)
(0.251731 0.000964345 4.44022e-05)
(0.255141 0.000956179 4.84564e-05)
(0.258355 0.000938898 5.24681e-05)
(0.261367 0.000911225 5.63945e-05)
(0.264167 0.000871915 6.01827e-05)
(0.266747 0.000819881 6.37707e-05)
(0.269095 0.000754236 6.70906e-05)
(0.271197 0.000674497 7.00712e-05)
(0.273038 0.00058051 7.26474e-05)
(0.274595 0.000472721 7.47622e-05)
(0.275838 0.000351767 7.6384e-05)
(0.276727 0.000218812 7.7484e-05)
(0.277208 7.47855e-05 7.7957e-05)
(0.00659015 -4.30389e-07 -1.66354e-06)
(0.0173088 1.72577e-06 -2.02567e-06)
(0.0284814 3.17967e-06 -5.98604e-07)
(0.039972 3.96396e-06 1.83579e-06)
(0.0516325 4.11556e-06 4.11556e-06)
(0.0633457 4.29257e-06 4.52033e-06)
(0.0750181 6.52743e-06 1.20834e-06)
(0.086575 1.35821e-05 -6.44127e-06)
(0.0979573 2.77818e-05 -1.72849e-05)
(0.10912 5.03561e-05 -2.92386e-05)
(0.120028 8.14869e-05 -4.02359e-05)
(0.130658 0.00012058 -4.87559e-05)
(0.140993 0.000166526 -5.39885e-05)
(0.151027 0.000217935 -5.57735e-05)
(0.160756 0.000273323 -5.44213e-05)
(0.170184 0.000331259 -5.05117e-05)
(0.179318 0.000390461 -4.47201e-05)
(0.188167 0.000449852 -3.76979e-05)
(0.196743 0.000508585 -3.00025e-05)
(0.205057 0.000566036 -2.20686e-05)
(0.213119 0.000621786 -1.42081e-05)
(0.220941 0.000675584 -6.62363e-06)
(0.228532 0.000727311 5.69601e-07)
(0.2359 0.00077694 7.32194e-06)
(0.243051 0.000824497 1.36296e-05)
(0.249992 0.000870028 1.95185e-05)
(0.256725 0.000913568 2.5032e-05)
(0.263253 0.000955115 3.0222e-05)
(0.269578 0.000994605 3.51433e-05)
(0.2757 0.00103189 3.98496e-05)
(0.281618 0.00106673 4.43907e-05)
(0.28733 0.00109874 4.88117e-05)
(0.292834 0.00112743 5.31516e-05)
(0.298127 0.00115215 5.74429e-05)
(0.303204 0.00117207 6.17108e-05)
(0.308061 0.00118622 6.59717e-05)
(0.312692 0.00119344 7.02309e-05)
(0.317091 0.00119243 7.44779e-05)
(0.32125 0.00118179 7.86982e-05)
(0.325164 0.00115999 8.28705e-05)
(0.328823 0.00112546 8.69519e-05)
(0.332218 0.00107667 9.08829e-05)
(0.33534 0.00101228 9.45902e-05)
(0.338176 0.000931176 9.79908e-05)
(0.340712 0.000832749 0.000100999)
(0.342929 0.000716778 0.000103539)
(0.344801 0.000583769 0.000105557)
(0.346295 0.000434479 0.000107039)
(0.347362 0.000270293 0.000107993)
(0.347939 9.23736e-05 0.000108308)
(0.00806154 -7.27546e-07 -3.18446e-06)
(0.0211381 2.15552e-06 -4.3514e-06)
(0.0348874 3.86201e-06 -2.41151e-06)
(0.0490497 4.64386e-06 1.2385e-06)
(0.0633457 4.52033e-06 4.29257e-06)
(0.0775799 3.85376e-06 3.85376e-06)
(0.0916328 5.38987e-06 -2.46993e-06)
(0.105432 1.34154e-05 -1.48911e-05)
(0.118931 3.10741e-05 -3.12063e-05)
(0.132101 5.92868e-05 -4.83633e-05)
(0.144924 9.74696e-05 -6.37359e-05)
(0.157389 0.000144337 -7.55792e-05)
(0.169493 0.000198327 -8.30612e-05)
(0.181237 0.00025782 -8.61191e-05)
(0.192626 0.00032126 -8.52253e-05)
(0.203668 0.000387227 -8.11524e-05)
(0.214373 0.000454476 -7.47738e-05)
(0.224752 0.000521961 -6.69262e-05)
(0.234816 0.000588841 -5.83284e-05)
(0.244579 0.000654479 -4.95457e-05)
(0.254051 0.000718419 -4.09872e-05)
(0.263242 0.000780365 -3.29209e-05)
(0.272162 0.000840148 -2.54985e-05)
(0.280819 0.000897688 -1.87824e-05)
(0.289219 0.000952967 -1.27701e-05)
(0.297367 0.00100599 -7.41547e-06)
(0.305265 0.00105675 -2.64535e-06)
(0.312918 0.00110521 1.62816e-06)
(0.320324 0.00115127 5.4989e-06)
(0.327484 0.00119474 9.06056e-06)
(0.334397 0.00123533 1.24027e-05)
(0.34106 0.0012726 1.56082e-05)
(0.347471 0.00130596 1.87512e-05)
(0.353625 0.00133468 2.18961e-05)
(0.359519 0.00135781 2.50955e-05)
(0.365146 0.00137423 2.83892e-05)
(0.370501 0.00138262 3.17993e-05)
(0.375578 0.00138148 3.53245e-05)
(0.380369 0.00136919 3.89555e-05)
(0.384867 0.00134399 4.2669e-05)
(0.389065 0.00130407 4.64116e-05)
(0.392952 0.00124767 5.01033e-05)
(0.39652 0.00117321 5.36435e-05)
(0.399755 0.00107941 5.69162e-05)
(0.402643 0.000965524 5.98026e-05)
(0.405163 0.00083127 6.21989e-05)
(0.407289 0.00067719 6.40368e-05)
(0.408984 0.000504142 6.53139e-05)
(0.410194 0.000313689 6.60677e-05)
(0.410847 0.000107203 6.63433e-05)
(0.00956835 -1.21988e-06 -5.08188e-06)
(0.0249981 2.01954e-06 -7.13458e-06)
(0.0413257 3.11144e-06 -4.2872e-06)
(0.0581481 2.79031e-06 1.53012e-06)
(0.0750181 1.20834e-06 6.52743e-06)
(0.0916328 -2.46993e-06 5.38987e-06)
(0.107842 -5.79939e-06 -5.79939e-06)
(0.123591 -2.66425e-06 -2.64629e-05)
(0.138869 1.20367e-05 -5.22112e-05)
(0.153683 3.98166e-05 -7.8153e-05)
(0.168047 7.97564e-05 -0.000100805)
(0.181977 0.000129998 -0.000118262)
(0.195489 0.000188483 -0.000129845)
(0.208598 0.000253249 -0.000135733)
(0.221321 0.000322551 -0.000136645)
(0.233671 0.000394875 -0.000133576)
(0.245661 0.00046893 -0.000127591)
(0.257306 0.000543638 -0.000119695)
(0.268615 0.000618118 -0.000110747)
(0.279601 0.000691672 -0.000101429)
(0.290274 0.000763773 -9.2242e-05)
(0.300641 0.000834042 -8.35235e-05)
(0.310712 0.00090222 -7.54731e-05)
(0.32049 0.000968145 -6.81821e-05)
(0.329982 0.00103172 -6.1661e-05)
(0.33919 0.00109287 -5.58633e-05)
(0.348116 0.00115153 -5.07053e-05)
(0.35676 0.00120761 -4.60816e-05)
(0.365123 0.00126095 -4.18758e-05)
(0.373203 0.00131131 -3.79691e-05)
(0.380996 0.00135835 -3.42459e-05)
(0.388501 0.00140156 -3.05983e-05)
(0.395713 0.00144031 -2.69289e-05)
(0.402627 0.00147376 -2.31532e-05)
(0.409238 0.00150087 -1.92025e-05)
(0.415541 0.00152041 -1.50265e-05)
(0.421529 0.00153092 -1.05988e-05)
(0.427196 0.00153076 -5.92425e-06)
(0.432534 0.0015181 -1.02389e-06)
(0.437537 0.00149102 4.06033e-06)
(0.442196 0.00144751 9.24627e-06)
(0.446503 0.00138559 1.44139e-05)
(0.450448 0.00130353 1.94137e-05)
(0.45402 0.00119987 2.40732e-05)
(0.457203 0.00107376 2.82166e-05)
(0.459977 0.00092486 3.16865e-05)
(0.462314 0.00075374 3.43765e-05)
(0.464174 0.000561338 3.62675e-05)
(0.465502 0.000349376 3.7401e-05)
(0.466218 0.000119406 3.79955e-05)
(0.0111012 -1.963e-06 -6.88071e-06)
(0.0288698 1.09184e-06 -9.35048e-06)
(0.0477591 4.82431e-07 -4.74896e-06)
(0.0672071 -2.21204e-06 4.6475e-06)
(0.086575 -6.44127e-06 1.35821e-05)
(0.105432 -1.48911e-05 1.34154e-05)
(0.123591 -2.64629e-05 -2.66425e-06)
(0.141026 -3.35668e-05 -3.35668e-05)
(0.157777 -2.86095e-05 -7.18065e-05)
(0.173906 -8.51664e-06 -0.000109497)
(0.189472 2.63561e-05 -0.000141574)
(0.204527 7.41374e-05 -0.000165784)
(0.219115 0.000132465 -0.000181737)
(0.233271 0.000198994 -0.000190094)
(0.247023 0.000271624 -0.000192039)
(0.260394 0.000348562 -0.000188947)
(0.273404 0.000428311 -0.000182176)
(0.286067 0.000509625 -0.00017295)
(0.298394 0.000591481 -0.000162293)
(0.310396 0.000673053 -0.000151014)
(0.322079 0.000753683 -0.000139707)
(0.333451 0.000832861 -0.000128782)
(0.344514 0.000910206 -0.000118492)
(0.355273 0.000985433 -0.000108963)
(0.365727 0.00105833 -0.00010023)
(0.375878 0.00112872 -9.22599e-05)
(0.385723 0.00119646 -8.49728e-05)
(0.395262 0.00126136 -7.82599e-05)
(0.404491 0.0013232 -7.19959e-05)
(0.413406 0.00138167 -6.60487e-05)
(0.422002 0.00143636 -6.02869e-05)
(0.430275 0.00148672 -5.45849e-05)
(0.438219 0.00153202 -4.8828e-05)
(0.445828 0.00157137 -4.29159e-05)
(0.453096 0.00160366 -3.67668e-05)
(0.460016 0.00162754 -3.03215e-05)
(0.46658 0.00164146 -2.35507e-05)
(0.472783 0.00164363 -1.64641e-05)
(0.478617 0.0016321 -9.09718e-06)
(0.484075 0.00160478 -1.51235e-06)
(0.489149 0.00155951 6.17667e-06)
(0.493832 0.00149416 1.38055e-05)
(0.498114 0.00140682 2.11702e-05)
(0.501983 0.00129593 2.80352e-05)
(0.505426 0.00116052 3.41601e-05)
(0.508422 0.00100022 3.93261e-05)
(0.510944 0.000815614 4.33821e-05)
(0.512949 0.00060771 4.62861e-05)
(0.514378 0.000378374 4.80786e-05)
(0.515149 0.000129333 4.90743e-05)
(0.0126485 -2.96766e-06 -7.93458e-06)
(0.0327312 -5.98918e-07 -9.65752e-06)
(0.0541512 -3.83827e-06 -1.96017e-06)
(0.0761746 -9.79178e-06 1.27105e-05)
(0.0979573 -1.72849e-05 2.77818e-05)
(0.118931 -3.12063e-05 3.10741e-05)
(0.138869 -5.22112e-05 1.20367e-05)
(0.157777 -7.18065e-05 -2.86095e-05)
(0.17576 -8.0484e-05 -8.0484e-05)
(0.192943 -7.34978e-05 -0.000132133)
(0.209442 -4.98758e-05 -0.000176052)
(0.225351 -1.06445e-05 -0.000208996)
(0.240744 4.21244e-05 -0.000230585)
(0.25568 0.000105964 -0.000241969)
(0.270204 0.000178447 -0.000244937)
(0.284351 0.000257397 -0.000241412)
(0.298145 0.000340955 -0.000233195)
(0.311606 0.000427568 -0.000221841)
(0.324746 0.000515956 -0.000208621)
(0.337575 0.00060507 -0.000194517)
(0.350097 0.000694062 -0.000180251)
(0.362316 0.000782248 -0.000166317)
(0.374233 0.000869085 -0.000153024)
(0.385846 0.00095414 -0.000140537)
(0.397152 0.00103706 -0.00012891)
(0.408146 0.00111755 -0.000118121)
(0.418825 0.00119533 -0.00010809)
(0.429181 0.00127013 -9.87061e-05)
(0.439209 0.00134161 -8.98345e-05)
(0.4489 0.00140939 -8.13309e-05)
(0.458246 0.00147297 -7.30488e-05)
(0.467241 0.00153173 -6.48459e-05)
(0.475875 0.00158487 -5.65899e-05)
(0.48414 0.00163142 -4.81633e-05)
(0.492029 0.00167018 -3.94688e-05)
(0.499533 0.00169974 -3.04359e-05)
(0.506644 0.00171844 -2.10285e-05)
(0.513355 0.00172438 -1.12574e-05)
(0.519657 0.0017155 -1.17089e-06)
(0.525545 0.00168957 9.15068e-06)
(0.531009 0.00164431 1.95633e-05)
(0.536044 0.00157746 2.98581e-05)
(0.540639 0.00148697 3.97754e-05)
(0.544786 0.00137118 4.90132e-05)
(0.548469 0.00122904 5.72634e-05)
(0.55167 0.00106015 6.42426e-05)
(0.55436 0.000865093 6.97536e-05)
(0.556497 0.000644957 7.37319e-05)
(0.558019 0.000401739 7.62225e-05)
(0.558839 0.000137343 7.75741e-05)
(0.0141982 -4.20547e-06 -7.62901e-06)
(0.0365595 -2.81498e-06 -6.82032e-06)
(0.0604676 -9.18929e-06 5.67563e-06)
(0.0850062 -1.86217e-05 2.73286e-05)
(0.10912 -2.92386e-05 5.03561e-05)
(0.132101 -4.83633e-05 5.92868e-05)
(0.153683 -7.8153e-05 3.98166e-05)
(0.173906 -0.000109497 -8.51664e-06)
(0.192943 -0.000132133 -7.34978e-05)
(0.210993 -0.000140459 -0.000140459)
(0.228228 -0.000132058 -0.000198965)
(0.24479 -0.000106416 -0.000243941)
(0.260786 -6.45306e-05 -0.000274316)
(0.276301 -8.40451e-06 -0.000291327)
(0.291396 5.95337e-05 -0.00029724)
(0.306119 0.000136838 -0.000294569)
(0.320504 0.000221265 -0.00028567)
(0.334576 0.000310862 -0.000272562)
(0.34835 0.000403984 -0.000256881)
(0.361837 0.000499268 -0.000239882)
(0.375041 0.000595599 -0.000222487)
(0.387963 0.000692066 -0.000205328)
(0.400602 0.000787931 -0.000188807)
(0.412951 0.000882584 -0.000173144)
(0.425005 0.00097552 -0.000158426)
(0.436753 0.0010663 -0.000144641)
(0.448186 0.0011545 -0.000131709)
(0.459293 0.00123974 -0.00011951)
(0.470062 0.00132156 -0.000107895)
(0.480482 0.00139947 -9.6704e-05)
(0.49054 0.00147289 -8.57723e-05)
(0.500223 0.00154108 -7.49391e-05)
(0.509521 0.00160316 -6.40533e-05)
(0.518421 0.00165808 -5.29796e-05)
(0.526913 0.00170455 -4.16051e-05)
(0.534986 0.00174106 -2.98465e-05)
(0.54263 0.00176587 -1.76606e-05)
(0.549837 0.00177697 -5.05752e-06)
(0.556597 0.0017722 7.90165e-06)
(0.562903 0.00174921 2.11173e-05)
(0.568748 0.00170561 3.44141e-05)
(0.574125 0.00163902 4.75364e-05)
(0.579025 0.00154731 6.01643e-05)
(0.583439 0.00142869 7.19246e-05)
(0.587354 0.00128207 8.24352e-05)
(0.590752 0.00110701 9.13426e-05)
(0.593603 0.000904094 9.83991e-05)
(0.595865 0.000674503 0.000103517)
(0.597475 0.000420355 0.000106746)
(0.598342 0.000143735 0.000108455)
(0.0157395 -5.62937e-06 -5.54154e-06)
(0.0403342 -5.23963e-06 -2.53348e-08)
(0.0666779 -1.47587e-05 1.91263e-05)
(0.0936655 -2.72408e-05 4.92786e-05)
(0.120028 -4.02359e-05 8.14869e-05)
(0.144924 -6.37359e-05 9.74696e-05)
(0.168047 -0.000100805 7.97564e-05)
(0.189472 -0.000141574 2.63561e-05)
(0.209442 -0.000176052 -4.98758e-05)
(0.228228 -0.000198965 -0.000132058)
(0.246066 -0.000206993 -0.000206993)
(0.263142 -0.000197929 -0.000267242)
(0.2796 -0.00017114 -0.000310256)
(0.295548 -0.000127497 -0.000336687)
(0.311067 -6.88694e-05 -0.000348857)
(0.326217 2.3927e-06 -0.000349688)
(0.341042 8.38442e-05 -0.000342077)
(0.355574 0.00017318 -0.000328585)
(0.369833 0.000268352 -0.00031132)
(0.383832 0.000367609 -0.000291925)
(0.397579 0.000469487 -0.000271622)
(0.411072 0.000572781 -0.000251268)
(0.42431 0.000676503 -0.000231425)
(0.437283 0.000779836 -0.00021242)
(0.449982 0.000882095 -0.000194405)
(0.462394 0.000982681 -0.000177402)
(0.474503 0.00108105 -0.000161344)
(0.486295 0.00117665 -0.000146104)
(0.497751 0.00126894 -0.000131522)
(0.508855 0.0013573 -0.000117416)
(0.519588 0.00144103 -0.000103602)
(0.529934 0.00151928 -8.98951e-05)
(0.539876 0.00159109 -7.61254e-05)
(0.549397 0.00165527 -6.21385e-05)
(0.558483 0.00171045 -4.7806e-05)
(0.567119 0.00175501 -3.30334e-05)
(0.575294 0.00178711 -1.7771e-05)
(0.582995 0.00180465 -2.02939e-06)
(0.590213 0.00180533 1.41143e-05)
(0.596939 0.00178671 3.05385e-05)
(0.603164 0.0017463 4.70328e-05)
(0.608883 0.0016816 6.32905e-05)
(0.614087 0.00159039 7.89258e-05)
(0.618768 0.00147081 9.3487e-05)
(0.622913 0.0013217 0.000106511)
(0.626505 0.00114259 0.000117565)
(0.629515 0.000934086 0.000126347)
(0.631901 0.000697441 0.000132739)
(0.633597 0.000434899 0.000136799)
(0.63451 0.000148743 0.000138917)
(0.0172628 -7.19205e-06 -1.50943e-06)
(0.0440376 -7.59124e-06 1.09964e-05)
(0.0727574 -1.98506e-05 3.86178e-05)
(0.102124 -3.44829e-05 7.85042e-05)
(0.130658 -4.87559e-05 0.00012058)
(0.157389 -7.55792e-05 0.000144337)
(0.181977 -0.000118262 0.000129998)
(0.204527 -0.000165784 7.41374e-05)
(0.225351 -0.000208996 -1.06445e-05)
(0.24479 -0.000243941 -0.000106416)
(0.263142 -0.000267242 -0.000197929)
(0.280642 -0.0002754 -0.0002754)
(0.297467 -0.000266063 -0.000334297)
(0.31375 -0.000238542 -0.000373998)
(0.329589 -0.000193587 -0.000396278)
(0.345059 -0.000132931 -0.000404067)
(0.360212 -5.88313e-05 -0.000400602)
(0.375089 2.6282e-05 -0.000388932)
(0.389716 0.000120058 -0.000371682)
(0.40411 0.000220363 -0.000350971)
(0.41828 0.000325341 -0.000328419)
(0.432228 0.000433423 -0.000305204)
(0.445952 0.000543303 -0.000282132)
(0.459443 0.000653898 -0.000259708)
(0.472689 0.000764302 -0.000238205)
(0.485674 0.000873734 -0.000217723)
(0.49838 0.000981491 -0.000198235)
(0.510786 0.0010869 -0.000179632)
(0.52287 0.00118929 -0.000161747)
(0.53461 0.00128791 -0.000144387)
(0.545981 0.00138196 -0.000127343)
(0.556961 0.00147049 -0.00011041)
(0.567527 0.0015524 -9.33913e-05)
(0.577657 0.0016264 -7.61145e-05)
(0.587331 0.001691 -5.84343e-05)
(0.59653 0.00174447 -4.02456e-05)
(0.605237 0.00178485 -2.14945e-05)
(0.613439 0.00180992 -2.19359e-06)
(0.621121 0.00181727 1.75597e-05)
(0.628273 0.00180434 3.76165e-05)
(0.634887 0.00176851 5.7727e-05)
(0.640954 0.00170721 7.75274e-05)
(0.646469 0.00161811 9.65592e-05)
(0.651421 0.00149926 0.000114285)
(0.6558 0.00134945 0.00013015)
(0.659589 0.0011682 0.000143638)
(0.66276 0.000956133 0.000154381)
(0.665269 0.00071456 0.000162229)
(0.667052 0.000445865 0.000167244)
(0.668011 0.000152536 0.00016984)
(0.0187608 -8.8567e-06 4.3851e-06)
(0.0476565 -9.68392e-06 2.60094e-05)
(0.0786877 -2.40193e-05 6.37186e-05)
(0.110362 -3.96585e-05 0.00011428)
(0.140993 -5.39885e-05 0.000166526)
(0.169493 -8.30612e-05 0.000198327)
(0.195489 -0.000129845 0.000188483)
(0.219115 -0.000181737 0.000132465)
(0.240744 -0.000230585 4.21244e-05)
(0.260786 -0.000274316 -6.45306e-05)
(0.2796 -0.000310256 -0.00017114)
(0.297467 -0.000334297 -0.000266063)
(0.314599 -0.000342723 -0.000342723)
(0.331151 -0.000333254 -0.00039877)
(0.347242 -0.000305189 -0.000434836)
(0.362957 -0.000259168 -0.00045332)
(0.37836 -0.000196789 -0.000457422)
(0.393498 -0.000120216 -0.000450471)
(0.408404 -3.1845e-05 -0.000435535)
(0.423099 6.59482e-05 -0.000415222)
(0.437597 0.000170959 -0.00039162)
(0.451904 0.000281235 -0.000366314)
(0.466017 0.000395099 -0.00034044)
(0.479929 0.000511137 -0.000314761)
(0.493629 0.000628158 -0.000289741)
(0.5071 0.000745149 -0.000265613)
(0.520321 0.000861218 -0.000242436)
(0.533269 0.000975537 -0.000220151)
(0.545918 0.0010873 -0.000198611)
(0.55824 0.00119565 -0.000177622)
(0.570206 0.00129966 -0.000156963)
(0.581786 0.00139829 -0.000136405)
(0.592952 0.00149033 -0.000115731)
(0.603676 0.00157437 -9.47433e-05)
(0.61393 0.00164881 -7.32805e-05)
(0.62369 0.00171178 -5.12258e-05)
(0.632934 0.00176119 -2.85224e-05)
(0.641643 0.00179471 -5.18819e-06)
(0.649799 0.00180977 1.86586e-05)
(0.65739 0.0018037 4.28317e-05)
(0.664404 0.00177375 6.70364e-05)
(0.670832 0.00171724 9.08451e-05)
(0.676666 0.00163173 0.000113718)
(0.6819 0.0015152 0.000135023)
(0.686521 0.00136638 0.000154107)
(0.690513 0.00118475 0.000170357)
(0.693849 0.000970961 0.000183333)
(0.696486 0.000726402 0.000192847)
(0.698357 0.000453588 0.000198959)
(0.699363 0.000155228 0.000202113)
(0.020228 -1.06003e-05 1.18802e-05)
(0.0511817 -1.14379e-05 4.44126e-05)
(0.0844565 -2.70858e-05 9.3533e-05)
(0.118367 -4.2548e-05 0.000155441)
(0.151027 -5.57735e-05 0.000217935)
(0.181237 -8.61191e-05 0.00025782)
(0.208598 -0.000135733 0.000253249)
(0.233271 -0.000190094 0.000198994)
(0.25568 -0.000241969 0.000105964)
(0.276301 -0.000291327 -8.40451e-06)
(0.295548 -0.000336687 -0.000127497)
(0.31375 -0.000373998 -0.000238542)
(0.331151 -0.00039877 -0.000333254)
(0.347934 -0.000407452 -0.000407452)
(0.364231 -0.000397891 -0.000460215)
(0.380143 -0.000369378 -0.000492895)
(0.395741 -0.000322449 -0.000508173)
(0.41108 -0.000258578 -0.000509303)
(0.4262 -0.000179829 -0.000499584)
(0.441127 -8.85476e-05 -0.000482022)
(0.45588 1.28818e-05 -0.000459168)
(0.470466 0.0001222 -0.000433062)
(0.484887 0.000237366 -0.000405246)
(0.499139 0.000356596 -0.000376823)
(0.513211 0.000478359 -0.000348522)
(0.527086 0.000601341 -0.000320777)
(0.540744 0.000724404 -0.000293792)
(0.554161 0.000846522 -0.000267596)
(0.567307 0.000966723 -0.000242102)
(0.580153 0.00108403 -0.000217138)
(0.592663 0.00119741 -0.000192486)
(0.604803 0.0013057 -0.000167906)
(0.616539 0.00140761 -0.000143161)
(0.627834 0.00150163 -0.000118033)
(0.638656 0.00158603 -9.23405e-05)
(0.648973 0.00165882 -6.59542e-05)
(0.658756 0.0017178 -3.8814e-05)
(0.667979 0.00176047 -1.09462e-05)
(0.676621 0.00178413 1.75097e-05)
(0.684663 0.00178595 4.63205e-05)
(0.692092 0.00176305 7.51391e-05)
(0.698895 0.00171263 0.000103466)
(0.705065 0.00163211 0.00013067)
(0.710591 0.0015194 0.000156013)
(0.715465 0.00137314 0.000178733)
(0.71967 0.00119281 0.000198109)
(0.723179 0.00097904 0.000213623)
(0.725949 0.000733315 0.000225038)
(0.727912 0.000458287 0.000232412)
(0.728967 0.000156894 0.000236208)
(0.0216611 -1.24118e-05 2.0616e-05)
(0.0546081 -1.28577e-05 6.54084e-05)
(0.0900576 -2.90807e-05 0.000126922)
(0.126134 -4.32871e-05 0.000200617)
(0.160756 -5.44213e-05 0.000273323)
(0.192626 -8.52253e-05 0.00032126)
(0.221321 -0.000136645 0.000322551)
(0.247023 -0.000192039 0.000271624)
(0.270204 -0.000244937 0.000178447)
(0.291396 -0.00029724 5.95337e-05)
(0.311067 -0.000348857 -6.88694e-05)
(0.329589 -0.000396278 -0.000193587)
(0.347242 -0.000434836 -0.000305189)
(0.364231 -0.000460215 -0.000397891)
(0.380708 -0.000469103 -0.000469103)
(0.396783 -0.00045946 -0.000518762)
(0.41254 -0.000430557 -0.000548573)
(0.42804 -0.000382839 -0.000561286)
(0.443329 -0.000317656 -0.000560094)
(0.458437 -0.000236972 -0.000548188)
(0.473388 -0.000143073 -0.000528479)
(0.488193 -3.83384e-05 -0.00050344)
(0.502858 7.493e-05 -0.000475053)
(0.517381 0.00019461 -0.000444825)
(0.531754 0.00031881 -0.000413827)
(0.545962 0.000445872 -0.000382767)
(0.559986 0.000574347 -0.000352055)
(0.573801 0.000702949 -0.000321872)
(0.587379 0.000830496 -0.000292228)
(0.600686 0.000955843 -0.000263012)
(0.613685 0.00107782 -0.000234034)
(0.626339 0.00119518 -0.000205061)
(0.638606 0.00130651 -0.000175845)
(0.650445 0.00141022 -0.000146153)
(0.661816 0.00150448 -0.000115786)
(0.672679 0.0015872 -8.46006e-05)
(0.682998 0.00165603 -5.25331e-05)
(0.69274 0.00170835 -1.96181e-05)
(0.701877 0.00174131 1.39805e-05)
(0.710384 0.00175191 4.79771e-05)
(0.718243 0.00173712 8.19628e-05)
(0.725438 0.00169397 0.000115355)
(0.731959 0.00161977 0.000147422)
(0.737795 0.00151231 0.000177305)
(0.742935 0.00137014 0.000204119)
(0.747364 0.00119271 0.000227027)
(0.751056 0.000980641 0.000245416)
(0.753966 0.000735501 0.000258996)
(0.756026 0.000460087 0.000267814)
(0.757133 0.000157578 0.000272348)
(0.0230582 -1.42881e-05 3.02075e-05)
(0.0579341 -1.39998e-05 8.81537e-05)
(0.0954894 -3.01626e-05 0.0001627)
(0.133661 -4.22217e-05 0.000248424)
(0.170184 -5.05117e-05 0.000331259)
(0.203668 -8.11524e-05 0.000387227)
(0.233671 -0.000133576 0.000394875)
(0.260394 -0.000188947 0.000348562)
(0.284351 -0.000241412 0.000257397)
(0.306119 -0.000294569 0.000136838)
(0.326217 -0.000349688 2.3927e-06)
(0.345059 -0.000404067 -0.000132931)
(0.362957 -0.00045332 -0.000259168)
(0.380143 -0.000492895 -0.000369378)
(0.396783 -0.000518762 -0.00045946)
(0.413004 -0.00052781 -0.00052781)
(0.428896 -0.000518084 -0.000574837)
(0.444529 -0.000488834 -0.000602375)
(0.459954 -0.000440413 -0.000613121)
(0.475207 -0.000374057 -0.000610138)
(0.490315 -0.000291629 -0.000596482)
(0.505294 -0.000195351 -0.000574947)
(0.520153 -8.75898e-05 -0.000547922)
(0.534892 2.93169e-05 -0.000517333)
(0.549508 0.000153169 -0.000484651)
(0.563988 0.000281964 -0.000450924)
(0.578314 0.000413908 -0.000416843)
(0.592464 0.000547399 -0.000382802)
(0.60641 0.000680985 -0.000348966)
(0.620118 0.000813299 -0.00031533)
(0.633551 0.000942997 -0.000281768)
(0.646666 0.00106869 -0.000248078)
(0.65942 0.00118886 -0.000214023)
(0.671767 0.00130183 -0.000179363)
(0.683659 0.00140569 -0.000143887)
(0.695051 0.00149824 -0.000107442)
(0.705897 0.00157703 -6.99585e-05)
(0.716158 0.00163932 -3.148e-05)
(0.725796 0.0016821 7.80566e-06)
(0.73478 0.0017022 4.75537e-05)
(0.743084 0.00169643 8.72855e-05)
(0.750689 0.00166166 0.000126325)
(0.757579 0.00159502 0.000163824)
(0.763742 0.00149418 0.000198792)
(0.769166 0.00135758 0.000230202)
(0.773833 0.0011846 0.000257086)
(0.777719 0.000975884 0.000278725)
(0.780778 0.000733047 0.000294763)
(0.782942 0.00045904 0.00030523)
(0.784103 0.000157297 0.000310609)
(0.0244188 -1.62304e-05 4.0297e-05)
(0.0611604 -1.49428e-05 0.000111869)
(0.100754 -3.05437e-05 0.000199772)
(0.140954 -3.978e-05 0.000297601)
(0.179318 -4.47201e-05 0.000390461)
(0.214373 -7.47738e-05 0.000454476)
(0.245661 -0.000127591 0.00046893)
(0.273404 -0.000182176 0.000428311)
(0.298145 -0.000233195 0.000340955)
(0.320504 -0.00028567 0.000221265)
(0.341042 -0.000342077 8.38442e-05)
(0.360212 -0.000400602 -5.88313e-05)
(0.37836 -0.000457422 -0.000196789)
(0.395741 -0.000508173 -0.000322449)
(0.41254 -0.000548573 -0.000430557)
(0.428896 -0.000574837 -0.000518084)
(0.444911 -0.000584012 -0.000584012)
(0.460659 -0.000574203 -0.000628974)
(0.476198 -0.000544634 -0.000654804)
(0.49157 -0.000495571 -0.000664081)