/*--------------------------------*- C++ -*----------------------------------*\
| =========                 |                                                 |
| \\      /  F ield         | OpenFOAM: The Open Source CFD Toolbox           |
|  \\    /   O peration     | Version:  v1912                                 |
|   \\  /    A nd           | Website:  www.openfoam.com                      |
|    \\/     M anipulation  |                                                 |
\*---------------------------------------------------------------------------*/
FoamFile
{
    version     2.0;
    format      ascii;
    class       volScalarField;
    location    "10000";
    object      epsilon;
}
// * * * * * * * * * * * * * * * * * * * * * * * * * * * * * * * * * * * * * //

dimensions      [0 2 -3 0 0 0 0];


internalField   nonuniform List<scalar> 
2500
(
0.0111141
0.0125411
0.0159418
0.0216238
0.0297576
0.0403456
0.0532311
0.0681448
0.0847603
0.102745
0.121799
0.141674
0.162177
0.18317
0.204554
0.226258
0.248232
0.270439
0.292848
0.315431
0.338165
0.361025
0.38399
0.407035
0.430136
0.453269
0.476409
0.499529
0.522599
0.545592
0.568474
0.591211
0.613766
0.636096
0.658157
0.679896
0.701255
0.722168
0.742557
0.762335
0.781398
0.799628
0.816884
0.833001
0.847786
0.861008
0.872393
0.881613
0.888275
0.891899
0.0125411
0.00979991
0.00985529
0.0117084
0.0149216
0.0192453
0.0244841
0.0304576
0.0369963
0.0439492
0.0511912
0.0586265
0.0661864
0.0738246
0.0815116
0.089229
0.0969654
0.104713
0.112468
0.120224
0.127979
0.135728
0.143468
0.151195
0.158903
0.166588
0.174244
0.181866
0.189446
0.196978
0.204453
0.211863
0.219197
0.226443
0.23359
0.240621
0.24752
0.254266
0.260837
0.267205
0.273337
0.279198
0.284742
0.289917
0.294663
0.298905
0.302557
0.305514
0.30765
0.308811
0.0159418
0.00985529
0.00765791
0.00752991
0.00862122
0.0105052
0.0129422
0.0157766
0.0188942
0.0222074
0.0256497
0.0291731
0.0327452
0.0363455
0.0399619
0.0435877
0.0472198
0.0508563
0.0544965
0.05814
0.0617863
0.0654347
0.0690846
0.0727348
0.0763841
0.0800309
0.0836732
0.0873088
0.0909351
0.0945489
0.0981468
0.101725
0.105277
0.1088
0.112285
0.115726
0.119114
0.122437
0.125685
0.128842
0.131892
0.134815
0.137587
0.140182
0.142567
0.144703
0.146545
0.148039
0.149119
0.149707
0.0216238
0.0117084
0.00752991
0.00610725
0.00611675
0.00693874
0.0082594
0.00990403
0.0117654
0.0137727
0.0158776
0.0180478
0.020262
0.0225076
0.024777
0.0270662
0.0293733
0.0316974
0.0340379
0.0363946
0.0387669
0.0411544
0.0435563
0.0459718
0.0483996
0.0508383
0.0532863
0.0557415
0.0582019
0.0606647
0.063127
0.0655853
0.0680358
0.0704739
0.0728944
0.0752913
0.0776576
0.0799854
0.0822653
0.0844865
0.0866363
0.0887002
0.0906608
0.0924982
0.0941886
0.0957044
0.0970125
0.0980738
0.0988417
0.0992599
0.0297576
0.0149216
0.00862122
0.00611675
0.00542726
0.00568697
0.00648303
0.00760005
0.0089176
0.0103647
0.0118982
0.0134912
0.0151277
0.016798
0.0184966
0.0202209
0.0219693
0.023741
0.0255357
0.0273528
0.0291918
0.0310519
0.0329324
0.034832
0.0367493
0.0386829
0.0406308
0.0425909
0.0445609
0.0465381
0.0485194
0.0505015
0.0524805
0.0544523
0.0564119
0.0583539
0.0602723
0.0621599
0.0640088
0.06581
0.0675528
0.0692252
0.0708133
0.0723006
0.0736681
0.0748936
0.0759506
0.0768078
0.0774276
0.0777651
0.0403456
0.0192453
0.0105052
0.00693874
0.00568697
0.00556953
0.00605074
0.00686422
0.00787081
0.00899543
0.0101966
0.0114508
0.012745
0.0140718
0.0154276
0.0168104
0.0182194
0.0196543
0.0211147
0.0226005
0.0241111
0.0256458
0.0272038
0.0287839
0.0303847
0.0320045
0.0336414
0.0352933
0.0369576
0.0386316
0.0403122
0.0419961
0.0436794
0.0453581
0.0470274
0.0486823
0.0503171
0.0519255
0.0535003
0.0550336
0.0565161
0.0579375
0.0592859
0.0605476
0.0617065
0.062744
0.0636381
0.0643627
0.0648863
0.0651712
0.0532311
0.0244841
0.0129422
0.0082594
0.00648303
0.00605074
0.00628454
0.00686463
0.0076345
0.00851542
0.00946669
0.0104668
0.0115044
0.0125736
0.0136715
0.014797
0.0159495
0.017129
0.0183356
0.019569
0.0208291
0.0221152
0.0234267
0.0247624
0.0261211
0.0275011
0.0289006
0.0303174
0.0317491
0.033193
0.034646
0.0361047
0.0375654
0.0390241
0.0404762
0.0419169
0.0433408
0.0447419
0.0461138
0.0474491
0.0487397
0.0499764
0.0511487
0.0522448
0.0532507
0.0541506
0.0549254
0.0555528
0.056006
0.0562525
0.0681448
0.0304576
0.0157766
0.00990403
0.00760005
0.00686422
0.00686463
0.00723015
0.00778926
0.00845954
0.00919974
0.00998854
0.0108148
0.0116729
0.0125602
0.0134753
0.0144181
0.0153885
0.0163866
0.0174126
0.0184661
0.0195469
0.0206544
0.0217877
0.0229457
0.024127
0.0253298
0.0265523
0.027792
0.0290463
0.0303123
0.0315867
0.032866
0.0341461
0.0354227
0.036691
0.037946
0.039182
0.0403929
0.0415718
0.0427113
0.0438031
0.0448377
0.0458046
0.0466916
0.0474845
0.0481669
0.0487191
0.0491179
0.0493347
0.0847603
0.0369963
0.0188942
0.0117654
0.0089176
0.00787081
0.0076345
0.00778926
0.00814953
0.00862817
0.00918168
0.00978732
0.010433
0.0111121
0.0118216
0.0125597
0.0133258
0.0141199
0.014942
0.0157922
0.0166704
0.0175763
0.0185097
0.0194699
0.0204559
0.0214666
0.0225005
0.023556
0.0246307
0.0257225
0.0268285
0.0279457
0.0290705
0.0301992
0.0313277
0.0324512
0.033565
0.0346636
0.0357412
0.0367912
0.0378069
0.0387803
0.039703
0.0405652
0.041356
0.0420628
0.0426708
0.0431628
0.0435179
0.0437109
0.102745
0.0439492
0.0222074
0.0137727
0.0103647
0.00899543
0.00851542
0.00845954
0.00862817
0.00892816
0.00931233
0.00975531
0.0102429
0.0107672
0.0113238
0.0119102
0.0125253
0.0131685
0.0138398
0.014539
0.0152662
0.0160211
0.0168037
0.0176134
0.0184495
0.0193112
0.0201973
0.0211063
0.0220364
0.0229856
0.0239512
0.0249306
0.0259205
0.0269172
0.0279169
0.0289152
0.0299073
0.030888
0.0318518
0.0327925
0.0337034
0.0345773
0.0354062
0.0361811
0.0368921
0.0375275
0.0380741
0.0385163
0.0388354
0.0390089
0.121799
0.0511912
0.0256497
0.0158776
0.0118982
0.0101966
0.00946669
0.00919974
0.00918168
0.00931233
0.00953986
0.00983537
0.0101821
0.0105699
0.0109929
0.0114475
0.0119317
0.0124445
0.0129852
0.0135536
0.0141496
0.0147731
0.0154239
0.0161017
0.0168061
0.0175364
0.0182917
0.0190709
0.0198724
0.0206946
0.0215353
0.0223919
0.0232616
0.024141
0.0250265
0.025914
0.0267988
0.0276761
0.0285404
0.0293858
0.0302061
0.0309943
0.0317428
0.0324433
0.0330863
0.0336612
0.034156
0.0345562
0.0348451
0.0350022
0.141674
0.0586265
0.0291731
0.0180478
0.0134912
0.0114508
0.0104668
0.00998854
0.00978732
0.00975531
0.00983537
0.00999465
0.0102132
0.0104787
0.0107831
0.0111217
0.0114913
0.01189
0.0123168
0.0127711
0.0132525
0.0137608
0.0142958
0.0148575
0.0154453
0.0160591
0.016698
0.0173612
0.0180477
0.0187559
0.0194842
0.0202302
0.0209916
0.0217652
0.0225479
0.0233356
0.0241242
0.0249089
0.0256846
0.0264456
0.0271858
0.0278987
0.0285768
0.0292123
0.0297964
0.0303192
0.0307693
0.0311336
0.0313965
0.0315395
0.162177
0.0661864
0.0327452
0.020262
0.0151277
0.012745
0.0115044
0.0108148
0.010433
0.0102429
0.0101821
0.0102132
0.0103132
0.0104669
0.0106645
0.0108994
0.0111673
0.0114654
0.011792
0.0121459
0.0125266
0.0129335
0.0133665
0.0138254
0.01431
0.01482
0.015355
0.0159143
0.0164972
0.0171026
0.0177291
0.0183748
0.0190376
0.019715
0.0204039
0.0211009
0.0218019
0.0225026
0.023198
0.0238828
0.0245511
0.0251965
0.025812
0.02639
0.0269221
0.0273989
0.0278099
0.0281428
0.0283832
0.028514
0.18317
0.0738246
0.0363455
0.0225076
0.016798
0.0140718
0.0125736
0.0116729
0.0111121
0.0107672
0.0105699
0.0104787
0.0104669
0.0105169
0.0106164
0.0107573
0.0109339
0.0111422
0.0113798
0.011645
0.0119366
0.0122539
0.0125967
0.0129645
0.0133573
0.0137747
0.0142167
0.0146827
0.0151723
0.0156845
0.0162185
0.0167728
0.0173455
0.0179347
0.0185376
0.0191511
0.0197716
0.0203951
0.0210169
0.021632
0.0222346
0.0228187
0.0233775
0.0239036
0.0243891
0.0248249
0.0252011
0.0255062
0.0257267
0.0258466
0.204554
0.0815116
0.0399619
0.024777
0.0184966
0.0154276
0.0136715
0.0125602
0.0118216
0.0113238
0.0109929
0.0107831
0.0106645
0.0106164
0.0106246
0.0106789
0.0107723
0.0108996
0.0110575
0.0112434
0.0114558
0.0116936
0.0119562
0.0122431
0.012554
0.0128889
0.0132475
0.0136296
0.0140349
0.0144628
0.0149126
0.0153833
0.0158735
0.0163815
0.0169049
0.0174412
0.0179872
0.0185391
0.0190927
0.0196432
0.0201851
0.0207127
0.0212194
0.0216982
0.0221412
0.0225399
0.0228847
0.0231647
0.0233673
0.0234776
0.226258
0.089229
0.0435877
0.0270662
0.0202209
0.0168104
0.014797
0.0134753
0.0125597
0.0119102
0.0114475
0.0111217
0.0108994
0.0107573
0.0106789
0.0106523
0.0106687
0.010722
0.0108075
0.0109221
0.0110636
0.0112304
0.0114215
0.0116362
0.0118742
0.0121353
0.0124192
0.0127259
0.0130551
0.0134065
0.0137798
0.0141741
0.0145884
0.0150215
0.0154714
0.015936
0.0164125
0.0168976
0.0173875
0.0178776
0.0183629
0.0188378
0.0192961
0.0197309
0.0201347
0.0204992
0.0208152
0.0210723
0.0212586
0.0213602
0.248232
0.0969654
0.0472198
0.0293733
0.0219693
0.0182194
0.0159495
0.0144181
0.0133258
0.0125253
0.0119317
0.0114913
0.0111673
0.0109339
0.0107723
0.0106687
0.010613
0.0105975
0.0106167
0.0106665
0.0107439
0.0108468
0.0109739
0.0111242
0.0112969
0.0114919
0.0117089
0.0119477
0.0122083
0.0124905
0.0127941
0.0131186
0.0134633
0.0138273
0.0142091
0.014607
0.0150186
0.015441
0.0158709
0.0163042
0.0167362
0.0171615
0.0175742
0.0179678
0.0183349
0.0186676
0.0189568
0.0191928
0.0193641
0.0194575
0.270439
0.104713
0.0508563
0.0316974
0.023741
0.0196543
0.017129
0.0153885
0.0141199
0.0131685
0.0124445
0.01189
0.0114654
0.0111422
0.0108996
0.010722
0.0105975
0.0105174
0.0104749
0.010465
0.010484
0.0105291
0.0105985
0.0106909
0.0108052
0.010941
0.0110979
0.0112757
0.0114745
0.0116941
0.0119344
0.0121952
0.0124761
0.0127763
0.013095
0.0134308
0.0137816
0.0141453
0.0145186
0.0148981
0.0152795
0.0156577
0.0160273
0.0163817
0.0167141
0.0170167
0.0172808
0.0174969
0.0176541
0.01774
0.292848
0.112468
0.0544965
0.0340379
0.0255357
0.0211147
0.0183356
0.0163866
0.014942
0.0138398
0.0129852
0.0123168
0.011792
0.0113798
0.0110575
0.0108075
0.0106167
0.0104749
0.0103742
0.0103087
0.0102738
0.0102661
0.0102832
0.0103233
0.010385
0.0104676
0.0105706
0.0106937
0.0108368
0.0109998
0.0111827
0.0113855
0.011608
0.0118497
0.01211
0.0123879
0.012682
0.0129903
0.0133102
0.0136387
0.0139719
0.0143052
0.0146334
0.0149504
0.0152496
0.0155235
0.0157637
0.0159609
0.0161048
0.0161835
0.315431
0.120224
0.05814
0.0363946
0.0273528
0.0226005
0.019569
0.0174126
0.0157922
0.014539
0.0135536
0.0127711
0.0121459
0.011645
0.0112434
0.0109221
0.0106665
0.010465
0.0103087
0.0101906
0.0101055
0.010049
0.0100182
0.0100108
0.010025
0.0100597
0.0101142
0.0101881
0.010281
0.010393
0.010524
0.0106741
0.0108432
0.0110312
0.0112377
0.0114619
0.011703
0.0119592
0.0122287
0.0125087
0.0127959
0.0130861
0.0133746
0.0136556
0.0139228
0.014169
0.0143861
0.0145652
0.0146962
0.0147681
0.338165
0.127979
0.0617863
0.0387669
0.0291918
0.0241111
0.0208291
0.0184661
0.0166704
0.0152662
0.0141496
0.0132525
0.0125266
0.0119366
0.0114558
0.0110636
0.0107439
0.010484
0.0102738
0.0101055
0.00997272
0.00987069
0.00979561
0.00974462
0.00971559
0.009707
0.0097178
0.00974732
0.00979516
0.00986118
0.00994533
0.0100477
0.0101683
0.0103071
0.010464
0.0106386
0.0108303
0.0110378
0.0112597
0.0114937
0.0117369
0.0119858
0.0122359
0.012482
0.0127182
0.0129374
0.0131321
0.0132935
0.0134121
0.0134774
0.361025
0.135728
0.0654347
0.0411544
0.0310519
0.0256458
0.0221152
0.0195469
0.0175763
0.0160211
0.0147731
0.0137608
0.0129335
0.0122539
0.0116936
0.0112304
0.0108468
0.0105291
0.0102661
0.010049
0.00987069
0.00972548
0.00960895
0.00951767
0.00944901
0.00940099
0.00937223
0.00936177
0.00936902
0.00939364
0.00943554
0.00949472
0.00957129
0.00966533
0.00977686
0.00990572
0.0100515
0.0102135
0.0103906
0.0105809
0.0107822
0.0109914
0.0112044
0.0114167
0.0116226
0.0118155
0.0119882
0.0121323
0.0122388
0.0122975
0.38399
0.143468
0.0690846
0.0435563
0.0329324
0.0272038
0.0234267
0.0206544
0.0185097
0.0168037
0.0154239
0.0142958
0.0133665
0.0125967
0.0119562
0.0114215
0.0109739
0.0105985
0.0102832
0.0100182
0.00979561
0.00960895
0.00945315
0.00932415
0.00921877
0.0091346
0.00906984
0.0090232
0.00899382
0.00898117
0.00898501
0.00900527
0.00904202
0.00909539
0.00916549
0.00925236
0.00935583
0.00947549
0.00961054
0.0097597
0.00992108
0.0100921
0.0102694
0.0104488
0.010625
0.0107921
0.0109431
0.0110702
0.0111646
0.0112168
0.407035
0.151195
0.0727348
0.0459718
0.034832
0.0287839
0.0247624
0.0217877
0.0194699
0.0176134
0.0161017
0.0148575
0.0138254
0.0129645
0.0122431
0.0116362
0.0111242
0.0106909
0.0103233
0.0100108
0.00974462
0.00951767
0.00932415
0.00915936
0.0090196
0.00890195
0.00880417
0.00872461
0.00866209
0.00861585
0.00858543
0.00857064
0.00857148
0.00858804
0.0086205
0.008669
0.00873355
0.00881401
0.00890989
0.00902031
0.00914386
0.00927846
0.00942129
0.00956866
0.00971596
0.00985765
0.00998722
0.0100973
0.0101797
0.0102255
0.430136
0.158903
0.0763841
0.0483996
0.0367493
0.0303847
0.0261211
0.0229457
0.0204559
0.0184495
0.0168061
0.0154453
0.01431
0.0133573
0.012554
0.0118742
0.0112969
0.0108052
0.010385
0.010025
0.00971559
0.00944901
0.00921877
0.0090196
0.00884722
0.0086982
0.00856985
0.00846011
0.00836746
0.00829084
0.00822956
0.00818324
0.00815175
0.00813513
0.00813353
0.00814713
0.0081761
0.00822046
0.00828001
0.00835421
0.00844207
0.00854201
0.00865174
0.00876813
0.00888716
0.00900383
0.0091122
0.00920539
0.00927578
0.00931518
0.453269
0.166588
0.0800309
0.0508383
0.0386829
0.0320045
0.0275011
0.024127
0.0214666
0.0193112
0.0175364
0.0160591
0.01482
0.0137747
0.0128889
0.0121353
0.0114919
0.010941
0.0104676
0.0100597
0.009707
0.00940099
0.0091346
0.00890195
0.0086982
0.00851942
0.00836243
0.00822477
0.00810452
0.00800031
0.00791115
0.00783646
0.00777591
0.00772944
0.00769713
0.00767917
0.00767577
0.0076871
0.00771315
0.0077537
0.0078081
0.00787524
0.00795335
0.00803987
0.00813138
0.00822351
0.00831089
0.00838728
0.00844568
0.00847861
0.476409
0.174244
0.0836732
0.0532863
0.0406308
0.0336414
0.0289006
0.0253298
0.0225005
0.0201973
0.0182917
0.016698
0.015355
0.0142167
0.0132475
0.0124192
0.0117089
0.0110979
0.0105706
0.0101142
0.0097178
0.00937223
0.00906984
0.00880417
0.00856985
0.00836243
0.00817828
0.00801447
0.00786871
0.00773925
0.00762481
0.00752453
0.00743787
0.00736461
0.00730472
0.00725832
0.00722564
0.00720692
0.0072023
0.00721178
0.00723504
0.00727136
0.00731946
0.00737735
0.00744222
0.00751034
0.00757704
0.00763674
0.00768314
0.00770959
0.499529
0.181866
0.0873088
0.0557415
0.0425909
0.0352933
0.0303174
0.0265523
0.023556
0.0211063
0.0190709
0.0173612
0.0159143
0.0146827
0.0136296
0.0127259
0.0119477
0.0112757
0.0106937
0.0101881
0.00974732
0.00936177
0.0090232
0.00872461
0.00846011
0.00822477
0.00801447
0.00782586
0.00765623
0.00750345
0.00736591
0.00724246
0.00713231
0.00703502
0.0069504
0.0068785
0.00681948
0.00677358
0.00674107
0.00672208
0.00671657
0.00672416
0.006744
0.00677464
0.00681389
0.0068587
0.00690511
0.0069483
0.00698276
0.00700272
0.522599
0.189446
0.0909351
0.0582019
0.0445609
0.0369576
0.0317491
0.027792
0.0246307
0.0220364
0.0198724
0.0180477
0.0164972
0.0151723
0.0140349
0.0130551
0.0122083
0.0114745
0.0108368
0.010281
0.00979516
0.00936902
0.00899382
0.00866209
0.00836746
0.00810452
0.00786871
0.00765623
0.00746396
0.00728939
0.00713055
0.00698597
0.00685459
0.00673572
0.00662898
0.00653427
0.00645166
0.00638136
0.00632365
0.00627879
0.00624692
0.00622794
0.0062214
0.00622634
0.00624117
0.00626351
0.00629016
0.00631713
0.00633978
0.00635329
0.545592
0.196978
0.0945489
0.0606647
0.0465381
0.0386316
0.033193
0.0290463
0.0257225
0.0229856
0.0206946
0.0187559
0.0171026
0.0156845
0.0144628
0.0134065
0.0124905
0.0116941
0.0109998
0.010393
0.00986118
0.00939364
0.00898117
0.00861585
0.00829084
0.00800031
0.00773925
0.00750345
0.00728939
0.00709416
0.00691545
0.00675142
0.00660073
0.00646241
0.00633587
0.0062208
0.00611715
0.00602505
0.00594475
0.00587656
0.00582075
0.00577744
0.00574652
0.00572747
0.00571923
0.00572013
0.00572773
0.00573891
0.00574997
0.00575711
0.568474
0.204453
0.0981468
0.063127
0.0485194
0.0403122
0.034646
0.0303123
0.0268285
0.0239512
0.0215353
0.0194842
0.0177291
0.0162185
0.0149126
0.0137798
0.0127941
0.0119344
0.0111827
0.010524
0.00994533
0.00943554
0.00898501
0.00858543
0.00822956
0.00791115
0.00762481
0.00736591
0.00713055
0.00691545
0.00671791
0.00653576
0.00636734
0.00621139
0.00606706
0.00593382
0.00581146
0.00569998
0.00559956
0.00551051
0.00543316
0.00536781
0.00531459
0.00527337
0.00524362
0.00522429
0.00521373
0.0052097
0.00520951
0.00521044
0.591211
0.211863
0.101725
0.0655853
0.0505015
0.0419961
0.0361047
0.0315867
0.0279457
0.0249306
0.0223919
0.0202302
0.0183748
0.0167728
0.0153833
0.0141741
0.0131186
0.0121952
0.0113855
0.0106741
0.0100477
0.00949472
0.00900527
0.00857064
0.00818324
0.00783646
0.00752453
0.00724246
0.00698597
0.00675142
0.00653576
0.00633648
0.00615156
0.00597947
0.00581907
0.00566959
0.00553061
0.00540197
0.00528374
0.00517618
0.00507964
0.00499452
0.00492116
0.00485973
0.00481016
0.00477201
0.00474437
0.00472589
0.00471493
0.00470988
0.613766
0.219197
0.105277
0.0680358
0.0524805
0.0436794
0.0375654
0.032866
0.0290705
0.0259205
0.0232616
0.0209916
0.0190376
0.0173455
0.0158735
0.0145884
0.0134633
0.0124761
0.011608
0.0108432
0.0101683
0.00957129
0.00904202
0.00857148
0.00815175
0.00777591
0.00743787
0.00713231
0.00685459
0.00660073
0.00636734
0.00615156
0.00595107
0.00576401
0.00558894
0.00542486
0.00527109
0.00512729
0.00499339
0.00486955
0.00475609
0.00465344
0.0045621
0.0044825
0.00441495
0.00435955
0.0043161
0.00428413
0.00426302
0.00425231
0.636096
0.226443
0.1088
0.0704739
0.0544523
0.0453581
0.0390241
0.0341461
0.0301992
0.0269172
0.024141
0.0217652
0.019715
0.0179347
0.0163815
0.0150215
0.0138273
0.0127763
0.0118497
0.0110312
0.0103071
0.00966533
0.00909539
0.00858804
0.00813513
0.00772944
0.00736461
0.00703502
0.00673572
0.00646241
0.00621139
0.00597947
0.00576401
0.00556283
0.00537422
0.00519688
0.00502989
0.0048727
0.00472506
0.00458699
0.00445874
0.00434076
0.00423361
0.00413793
0.00405433
0.00398339
0.00392558
0.00388125
0.00385077
0.0038348
0.658157
0.23359
0.112285
0.0728944
0.0564119
0.0470274
0.0404762
0.0354227
0.0313277
0.0279169
0.0250265
0.0225479
0.0204039
0.0185376
0.0169049
0.0154714
0.0142091
0.013095
0.01211
0.0112377
0.010464
0.00977686
0.00916549
0.0086205
0.00813353
0.00769713
0.00730472
0.0069504
0.00662898
0.00633587
0.00606706
0.00581907
0.00558894
0.00537422
0.00517288
0.00498335
0.00480444
0.00463538
0.0044757
0.00432527
0.00418425
0.00405302
0.00393219
0.0038225
0.00372486
0.00364022
0.00356964
0.00351424
0.00347531
0.00345457
0.679896
0.240621
0.115726
0.0752913
0.0583539
0.0486823
0.0419169
0.036691
0.0324512
0.0289152
0.025914
0.0233356
0.0211009
0.0191511
0.0174412
0.015936
0.014607
0.0134308
0.0123879
0.0114619
0.0106386
0.00990572
0.00925236
0.008669
0.00814713
0.00767917
0.00725832
0.0068785
0.00653427
0.0062208
0.00593382
0.00566959
0.00542486
0.00519688
0.00498335
0.0047824
0.00459261
0.00441293
0.0042427
0.0040816
0.00392963
0.00378712
0.00365463
0.00353302
0.00342336
0.00332694
0.0032453
0.00318024
0.0031339
0.00310896
0.701255
0.24752
0.119114
0.0776576
0.0602723
0.0503171
0.0433408
0.037946
0.033565
0.0299073
0.0267988
0.0241242
0.0218019
0.0197716
0.0179872
0.0164125
0.0150186
0.0137816
0.012682
0.011703
0.0108303
0.0100515
0.00935583
0.00873355
0.0081761
0.00767577
0.00722564
0.00681948
0.00645166
0.00611715
0.00581146
0.00553061
0.00527109
0.00502989
0.00480444
0.00459261
0.0043927
0.00420342
0.00402388
0.00385356
0.0036923
0.00354031
0.00339811
0.00326657
0.0031469
0.00304064
0.00294973
0.00287653
0.00282391
0.00279541
0.722168
0.254266
0.122437
0.0799854
0.0621599
0.0519255
0.0447419
0.039182
0.0346636
0.030888
0.0276761
0.0249089
0.0225026
0.0203951
0.0185391
0.0168976
0.015441
0.0141453
0.0129903
0.0119592
0.0110378
0.0102135
0.00947549
0.00881401
0.00822046
0.0076871
0.00720692
0.00677358
0.00638136
0.00602505
0.00569998
0.00540197
0.00512729
0.0048727
0.00463538
0.00441293
0.00420342
0.0040053
0.00381746
0.00363915
0.00347006
0.00331023
0.00316012
0.00302056
0.00289284
0.00277868
0.00268031
0.00260054
0.00254285
0.00251145
0.742557
0.260837
0.125685
0.0822653
0.0640088
0.0535003
0.0461138
0.0403929
0.0357412
0.0318518
0.0285404
0.0256846
0.023198
0.0210169
0.0190927
0.0173875
0.0158709
0.0145186
0.0133102
0.0122287
0.0112597
0.0103906
0.00961054
0.00890989
0.00828001
0.00771315
0.0072023
0.00674107
0.00632365
0.00594475
0.00559956
0.00528374
0.00499339
0.00472506
0.0044757
0.0042427
0.00402388
0.00381746
0.00362208
0.00343682
0.00326113
0.00309493
0.00293853
0.00279274
0.00265884
0.00253865
0.00243461
0.00234988
0.00228834
0.00225475
0.762335
0.267205
0.128842
0.0844865
0.06581
0.0550336
0.0474491
0.0415718
0.0367912
0.0327925
0.0293858
0.0264456
0.0238828
0.021632
0.0196432
0.0178776
0.0163042
0.0148981
0.0136387
0.0125087
0.0114937
0.0105809
0.0097597
0.00902031
0.00835421
0.0077537
0.00721178
0.00672208
0.00627879
0.00587656
0.00551051
0.00517618
0.00486955
0.00458699
0.00432527
0.0040816
0.00385356
0.00363915
0.00343682
0.00324539
0.00306416
0.00289285
0.00273164
0.00258124
0.0024429
0.00231847
0.0022105
0.00212234
0.00205817
0.00202308
0.781398
0.273337
0.131892
0.0866363
0.0675528
0.0565161
0.0487397
0.0427113
0.0378069
0.0337034
0.0302061
0.0271858
0.0245511
0.0222346
0.0201851
0.0183629
0.0167362
0.0152795
0.0139719
0.0127959
0.0117369
0.0107822
0.00992108
0.00914386
0.00844207
0.0078081
0.00723504
0.00671657
0.00624692
0.00582075
0.00543316
0.00507964
0.00475609
0.00445874
0.00418425
0.00392963
0.0036923
0.00347006
0.00326113
0.00306416
0.00287823
0.00270288
0.00253814
0.0023846
0.00224341
0.00211639
0.00200612
0.001916
0.00185035
0.00181443
0.799628
0.279198
0.134815
0.0887002
0.0692252
0.0579375
0.0499764
0.0438031
0.0387803
0.0345773
0.0309943
0.0278987
0.0251965
0.0228187
0.0207127
0.0188378
0.0171615
0.0156577
0.0143052
0.0130861
0.0119858
0.0109914
0.0100921
0.00927846
0.00854201
0.00787524
0.00727136
0.00672416
0.00622794
0.00577744
0.00536781
0.00499452
0.00465344
0.00434076
0.00405302
0.00378712
0.00354031
0.00331023
0.00309493
0.00289285
0.00270288
0.00252438
0.00235722
0.00220181
0.00205918
0.00193107
0.00181997
0.00172924
0.00166318
0.00162704
0.816884
0.284742
0.137587
0.0906608
0.0708133
0.0592859
0.0511487
0.0448377
0.039703
0.0354062
0.0317428
0.0285768
0.025812
0.0233775
0.0212194
0.0192961
0.0175742
0.0160273
0.0146334
0.0133746
0.0122359
0.0112044
0.0102694
0.00942129
0.00865174
0.00795335
0.00731946
0.006744
0.0062214
0.00574652
0.00531459
0.00492116
0.0045621
0.00423361
0.00393219
0.00365463
0.00339811
0.00316012
0.00293853
0.00273164
0.00253814
0.00235722
0.00218854
0.00203235
0.00188951
0.0017616
0.00165096
0.00156081
0.00149528
0.00145947
0.833001
0.289917
0.140182
0.0924982
0.0723006
0.0605476
0.0522448
0.0458046
0.0405652
0.0361811
0.0324433
0.0292123
0.02639
0.0239036
0.0216982
0.0197309
0.0179678
0.0163817
0.0149504
0.0136556
0.012482
0.0114167
0.0104488
0.00956866
0.00876813
0.00803987
0.00737735
0.00677464
0.00622634
0.00572747
0.00527337
0.00485973
0.0044825
0.00413793
0.0038225
0.00353302
0.00326657
0.00302056
0.00279274
0.00258124
0.0023846
0.00220181
0.00203235
0.00187627
0.00173423
0.0016076
0.00149851
0.00140991
0.00134568
0.00131064
0.847786
0.294663
0.142567
0.0941886
0.0736681
0.0617065
0.0532507
0.0466916
0.041356
0.0368921
0.0330863
0.0297964
0.0269221
0.0243891
0.0221412
0.0201347
0.0183349
0.0167141
0.0152496
0.0139228
0.0127182
0.0116226
0.010625
0.00971596
0.00888716
0.00813138
0.00744222
0.00681389
0.00624117
0.00571923
0.00524362
0.00481016
0.00441495
0.00405433
0.00372486
0.00342336
0.0031469
0.00289284
0.00265884
0.0024429
0.00224341
0.00205918
0.00188951
0.00173423
0.00159378
0.00146926
0.00136253
0.00127623
0.00121389
0.00117997
0.861008
0.298905
0.144703
0.0957044
0.0748936
0.062744
0.0541506
0.0474845
0.0420628
0.0375275
0.0336612
0.0303192
0.0273989
0.0248249
0.0225399
0.0204992
0.0186676
0.0170167
0.0155235
0.014169
0.0129374
0.0118155
0.0107921
0.00985765
0.00900383
0.00822351
0.00751034
0.0068587
0.00626351
0.00572013
0.00522429
0.00477201
0.00435955
0.00398339
0.00364022
0.00332694
0.00304064
0.00277868
0.00253865
0.00231847
0.00211639
0.00193107
0.0017616
0.0016076
0.00146926
0.00134741
0.00124358
0.00116006
0.00109997
0.00106736
0.872393
0.302557
0.146545
0.0970125
0.0759506
0.0636381
0.0549254
0.0481669
0.0426708
0.0380741
0.034156
0.0307693
0.0278099
0.0252011
0.0228847
0.0208152
0.0189568
0.0172808
0.0157637
0.0143861
0.0131321
0.0119882
0.0109431
0.00998722
0.0091122
0.00831089
0.00757704
0.00690511
0.00629016
0.00572773
0.00521373
0.00474437
0.0043161
0.00392558
0.00356964
0.0032453
0.00294973
0.00268031
0.00243461
0.0022105
0.00200612
0.00181997
0.00165096
0.00149851
0.00136253
0.00124358
0.00114285
0.00106228
0.00100457
0.000973341
0.881613
0.305514
0.148039
0.0980738
0.0768078
0.0643627
0.0555528
0.0487191
0.0431628
0.0385163
0.0345562
0.0311336
0.0281428
0.0255062
0.0231647
0.0210723
0.0191928
0.0174969
0.0159609
0.0145652
0.0132935
0.0121323
0.0110702
0.0100973
0.00920539
0.00838728
0.00763674
0.0069483
0.00631713
0.00573891
0.0052097
0.00472589
0.00428413
0.00388125
0.00351424
0.00318024
0.00287653
0.00260054
0.00234988
0.00212234
0.001916
0.00172924
0.00156081
0.00140991
0.00127623
0.00116006
0.00106228
0.000984472
0.000928982
0.000899043
0.888275
0.30765
0.149119
0.0988417
0.0774276
0.0648863
0.056006
0.0491179
0.0435179
0.0388354
0.0348451
0.0313965
0.0283832
0.0257267
0.0233673
0.0212586
0.0193641
0.0176541
0.0161048
0.0146962
0.0134121
0.0122388
0.0111646
0.0101797
0.00927578
0.00844568
0.00768314
0.00698276
0.00633978
0.00574997
0.00520951
0.00471493
0.00426302
0.00385077
0.00347531
0.0031339
0.00282391
0.00254285
0.00228834
0.00205817
0.00185035
0.00166318
0.00149528
0.00134568
0.00121389
0.00109997
0.00100457
0.000928982
0.000875263
0.000846346
0.891899
0.308811
0.149707
0.0992599
0.0777651
0.0651712
0.0562525
0.0493347
0.0437109
0.0390089
0.0350022
0.0315395
0.028514
0.0258466
0.0234776
0.0213602
0.0194575
0.01774
0.0161835
0.0147681
0.0134774
0.0122975
0.0112168
0.0102255
0.00931518
0.00847861
0.00770959
0.00700272
0.00635329
0.00575711
0.00521044
0.00470988
0.00425231
0.0038348
0.00345457
0.00310896
0.00279541
0.00251145
0.00225475
0.00202308
0.00181443
0.00162704
0.00145947
0.00131064
0.00117997
0.00106736
0.000973341
0.000899043
0.000846346
0.000818018
)
;

boundaryField
{
    bottomWall
    {
        lowReCorrection 0;
        type            epsilonWallFunction;
        value           nonuniform List<scalar> 
50
(
0.0111141
0.0125411
0.0159418
0.0216238
0.0297576
0.0403456
0.0532311
0.0681448
0.0847603
0.102745
0.121799
0.141674
0.162177
0.18317
0.204554
0.226258
0.248232
0.270439
0.292848
0.315431
0.338165
0.361025
0.38399
0.407035
0.430136
0.453269
0.476409
0.499529
0.522599
0.545592
0.568474
0.591211
0.613766
0.636096
0.658157
0.679896
0.701255
0.722168
0.742557
0.762335
0.781398
0.799628
0.816884
0.833001
0.847786
0.861008
0.872393
0.881613
0.888275
0.891899
)
;
    }
    leftWall
    {
        lowReCorrection 0;
        type            epsilonWallFunction;
        value           nonuniform List<scalar> 
50
(
0.0111141
0.0125411
0.0159418
0.0216238
0.0297576
0.0403456
0.0532311
0.0681448
0.0847603
0.102745
0.121799
0.141674
0.162177
0.18317
0.204554
0.226258
0.248232
0.270439
0.292848
0.315431
0.338165
0.361025
0.38399
0.407035
0.430136
0.453269
0.476409
0.499529
0.522599
0.545592
0.568474
0.591211
0.613766
0.636096
0.658157
0.679896
0.701255
0.722168
0.742557
0.762335
0.781398
0.799628
0.816884
0.833001
0.847786
0.861008
0.872393
0.881613
0.888275
0.891899
)
;
    }
    topSym
    {
        type            symmetryPlane;
    }
    rightSym
    {
        type            symmetryPlane;
    }
    inlet
    {
        type            cyclic;
    }
    outlet
    {
        type            cyclic;
    }
}


// ************************************************************************* //
