/*--------------------------------*- C++ -*----------------------------------*\
| =========                 |                                                 |
| \\      /  F ield         | OpenFOAM: The Open Source CFD Toolbox           |
|  \\    /   O peration     | Version:  v1912                                 |
|   \\  /    A nd           | Website:  www.openfoam.com                      |
|    \\/     M anipulation  |                                                 |
\*---------------------------------------------------------------------------*/
FoamFile
{
    version     2.0;
    format      ascii;
    class       volTensorField;
    location    "1";
    object      grad(U);
}
// * * * * * * * * * * * * * * * * * * * * * * * * * * * * * * * * * * * * * //

dimensions      [0 0 -1 0 0 0 0];


internalField   nonuniform List<tensor> 
2500
(
(0 0 0 0.522848 -1.90316e-12 -1.14437e-12 0.522848 -1.14437e-12 -1.90316e-12)
(-1.60729e-18 5.8473e-30 1.46183e-30 0.450711 2.82668e-13 6.70091e-13 1.44811 -1.82863e-12 -1.022e-12)
(0 0 0 0.419793 8.52011e-13 2.98257e-13 2.36332 -8.939e-13 -3.9979e-13)
(-5.68921e-18 0 1.61697e-31 0.399132 3.08842e-13 6.06636e-14 3.28444 -4.49548e-13 -1.75052e-13)
(0 0 0 0.381762 1.16152e-13 1.97068e-14 4.21755 -2.42238e-13 -6.67274e-14)
(0 2.86173e-31 -3.57717e-32 0.36445 5.05818e-14 5.46069e-15 5.16225 -1.26903e-13 -1.75538e-14)
(9.47168e-18 -6.73004e-32 3.36502e-32 0.345676 2.08234e-14 -3.65105e-16 6.11361 -6.63258e-14 4.19774e-17)
(0 0 0 0.325093 8.7044e-15 -1.48996e-15 7.06407 -3.48619e-14 4.76101e-15)
(0 0 0 0.303136 4.25038e-15 -1.26997e-15 8.00546 -1.69468e-14 5.09796e-15)
(0 0 0 0.280624 2.48925e-15 -8.76463e-16 8.93081 -5.53867e-15 4.26952e-15)
(0 0 0 0.258416 1.65078e-15 -5.60967e-16 9.83512 2.3507e-15 3.3894e-15)
(-2.7908e-17 0 -6.19683e-33 0.237184 1.15273e-15 -3.47129e-16 10.7155 8.10039e-15 2.7248e-15)
(0 0 -5.82932e-33 0.217324 8.00769e-16 -2.19389e-16 11.5709 1.23232e-14 2.31872e-15)
(0 0 0 0.199033 5.49123e-16 -1.4098e-16 12.4016 1.5404e-14 2.01172e-15)
(0 -2.06336e-32 0 0.182351 3.52919e-16 -8.45178e-17 13.2083 1.76674e-14 1.83324e-15)
(2.18536e-17 0 2.42623e-33 0.167191 1.83515e-16 -6.59896e-17 13.9926 1.91511e-14 1.74451e-15)
(0 -3.65175e-32 -4.56469e-33 0.153441 7.85001e-17 -5.5474e-17 14.7557 1.99758e-14 1.60029e-15)
(-1.93383e-17 -3.43518e-32 -4.29397e-33 0.140967 8.74777e-18 -3.60054e-17 15.4991 2.04707e-14 1.5105e-15)
(0 0 0 0.129621 -6.82808e-17 -2.92308e-17 16.2241 2.05326e-14 1.42402e-15)
(0 -3.03981e-32 -1.89988e-33 0.119276 -9.25165e-17 -3.24554e-17 16.9317 2.01812e-14 1.31385e-15)
(0 0 0 0.109835 -1.10688e-16 -2.22507e-17 17.623 1.98714e-14 1.15064e-15)
(0 -2.68994e-32 -1.68121e-33 0.101193 -1.50034e-16 -1.57196e-17 18.2986 1.91754e-14 1.13913e-15)
(0 0 0 0.0932564 -1.49663e-16 -1.66242e-17 18.9594 1.82841e-14 9.96539e-16)
(0 0 0 0.0859607 -1.25315e-16 -1.64125e-17 19.6058 1.74219e-14 9.48093e-16)
(0 0 0 0.0792432 -1.25018e-16 -1.34481e-17 20.2381 1.66703e-14 8.06712e-16)
(0 0 -1.31649e-33 0.0730483 -1.55939e-16 -1.16075e-17 20.8569 1.56194e-14 8.02241e-16)
(4.46185e-17 1.98146e-32 2.47682e-33 0.0673259 -1.2223e-16 -1.05553e-17 21.4622 1.42716e-14 6.21628e-16)
(0 0 0 0.0620317 -1.04236e-16 -2.41636e-18 22.0543 1.36425e-14 5.96524e-16)
(0 1.7534e-32 1.09588e-33 0.0571259 -1.33819e-16 -5.44168e-18 22.6333 1.24232e-14 6.08937e-16)
(0 0 -1.03088e-33 0.0525783 -1.18775e-16 -7.16907e-18 23.1991 1.11805e-14 4.94362e-16)
(0 0 0 0.0483566 -1.02403e-16 -3.0178e-18 23.7518 1.00969e-14 4.66247e-16)
(0 1.45958e-32 0 0.0444314 -7.28621e-17 -1.70167e-18 24.291 9.02151e-15 4.10305e-16)
(0 0 0 0.0407791 -5.80042e-17 -7.26438e-18 24.8168 8.48746e-15 4.10173e-16)
(0 0 0 0.0373739 -5.23254e-17 -5.27088e-18 25.3288 7.60928e-15 2.43689e-16)
(0 -1.21499e-32 -3.79684e-34 0.0341932 -6.38665e-17 -3.25751e-19 25.8263 7.10209e-15 3.0336e-16)
(-2.57365e-17 -1.14293e-32 0 0.0312168 -8.23096e-17 -4.09015e-18 26.3093 5.80158e-15 2.90059e-16)
(-4.84204e-17 -1.07515e-32 0 0.028427 -9.99884e-18 -3.03242e-19 26.7767 4.70108e-15 1.3996e-16)
(0 0 -3.16058e-34 0.0258034 -5.56637e-18 2.06615e-19 27.2279 5.48391e-15 2.05218e-16)
(0 0 0 0.023325 -6.06342e-17 -2.99779e-18 27.662 4.41755e-15 1.59006e-16)
(8.06127e-17 4.4749e-33 1.39841e-34 0.0209804 -3.16404e-17 1.12775e-18 28.0777 3.37814e-15 7.43483e-17)
(-3.79159e-17 0 -2.63095e-34 0.0187514 -3.23991e-17 6.37458e-19 28.4736 3.30084e-15 2.07836e-16)
(-3.56673e-17 0 0 0.0166201 -5.69561e-17 4.66417e-20 28.8478 2.14345e-15 2.18601e-16)
(0 0 0 0.0145713 -3.78297e-17 -6.31888e-19 29.1983 1.00884e-15 2.10537e-16)
(3.15622e-17 0 0 0.012589 -6.5893e-18 -5.00418e-18 29.5224 6.08472e-16 8.7499e-17)
(0 0 0 0.0106559 2.7713e-17 -1.87111e-18 29.8171 7.61984e-16 -7.31287e-17)
(0 0 0 0.00875217 2.79637e-17 4.23169e-19 30.0786 1.95723e-15 1.03418e-17)
(0 0 0 0.00686166 -3.04634e-17 1.66432e-18 30.3022 2.0854e-15 -7.57401e-18)
(-4.943e-17 -1.07184e-35 -1.71495e-34 0.0049619 -4.61297e-17 4.14381e-19 30.4823 -2.12718e-17 1.48165e-16)
(0 0 0 0.00302585 -7.25781e-18 -1.94812e-18 30.6117 -6.30976e-16 -3.14773e-17)
(0 0 0 0.00102256 1.67645e-17 2.11288e-19 30.682 -3.67164e-16 -2.89621e-17)
(1.60729e-18 -1.46183e-30 -5.8473e-30 1.44811 -1.022e-12 -1.82863e-12 0.450711 6.70092e-13 2.82675e-13)
(0 0 0 1.30707 -1.05455e-13 7.54134e-13 1.30707 7.54128e-13 -1.0544e-13)
(2.27568e-17 -2.58715e-30 -1.29358e-30 1.22978 3.66774e-13 4.67121e-13 2.17884 1.11608e-13 -2.46028e-13)
(0 -1.21686e-30 6.0843e-31 1.16755 2.37466e-13 2.24556e-13 3.06463 -8.55395e-14 -1.82807e-13)
(0 0 0 1.11067 1.39409e-13 1.07728e-13 3.96301 -1.14484e-13 -1.12544e-13)
(1.89434e-17 0 -1.34601e-31 1.05312 8.11652e-14 4.56621e-14 4.86953 -1.0134e-13 -6.39336e-14)
(-1.78199e-17 2.53236e-31 3.16545e-32 0.991921 4.42886e-14 1.66195e-14 5.77682 -7.81546e-14 -3.44795e-14)
(0 0 0 0.926647 2.42269e-14 5.0735e-15 6.6765 -5.6612e-14 -1.84213e-14)
(0 1.12045e-31 0 0.858791 1.41546e-14 1.06169e-15 7.56086 -3.97251e-14 -1.01501e-14)
(-5.9335e-17 0 -1.3175e-32 0.790701 8.89974e-15 -8.39223e-17 8.42412 -2.71395e-14 -5.92266e-15)
(-5.5816e-17 0 -1.23937e-32 0.724616 5.91565e-15 -2.71944e-16 9.26267 -1.78305e-14 -3.60167e-15)
(0 -2.33173e-32 0 0.662206 4.04983e-15 -1.98878e-16 10.0749 -1.08875e-14 -2.21391e-15)
(0 0 0 0.604428 2.78343e-15 -1.21462e-16 10.8607 -5.68813e-15 -1.29115e-15)
(4.64627e-17 4.12671e-32 5.15839e-33 0.551638 1.91786e-15 -7.81555e-17 11.6208 -1.74224e-15 -6.57696e-16)
(0 -7.76395e-32 -9.70494e-33 0.503766 1.27757e-15 -2.84696e-17 12.3566 1.30319e-15 -1.70946e-16)
(0 0 4.56469e-33 0.460492 7.64931e-16 -2.51947e-17 13.0696 3.57021e-15 1.79902e-16)
(1.1603e-16 6.87036e-32 8.58795e-33 0.421412 4.32253e-16 -3.24311e-17 13.7612 5.23761e-15 4.18565e-16)
(-7.27659e-17 -6.46291e-32 -4.03932e-33 0.386077 1.98675e-16 -2.60686e-17 14.4332 6.49964e-15 6.23919e-16)
(6.84504e-17 0 3.79976e-33 0.354067 -2.24508e-17 -3.61695e-17 15.0864 7.35107e-15 7.24391e-16)
(-6.43909e-17 -5.71906e-32 0 0.324995 -1.15521e-16 -5.32356e-17 15.7223 7.85165e-15 7.5854e-16)
(0 0 0 0.298524 -1.84186e-16 -3.08162e-17 16.3416 8.26137e-15 7.29694e-16)
(5.69798e-17 1.01216e-31 0 0.274363 -2.92293e-16 -2.6171e-17 16.9453 8.39081e-15 7.74994e-16)
(0 0 0 0.252264 -3.12396e-16 -3.44419e-17 17.534 8.30753e-15 7.43369e-16)
(0 0 0 0.232008 -2.756e-16 -2.98246e-17 18.1082 8.16603e-15 7.16943e-16)
(-9.48629e-17 -8.42551e-32 -2.63297e-33 0.213398 -2.93598e-16 -2.13849e-17 18.6683 8.01328e-15 6.76532e-16)
(0 0 0 0.196283 -3.68819e-16 -2.78619e-17 19.2148 7.5986e-15 7.38879e-16)
(0 0 0 0.180508 -2.90711e-16 -3.30713e-17 19.7479 7.00327e-15 5.74682e-16)
(0 0 0 0.16596 -2.51536e-16 -1.70634e-19 20.2677 6.827e-15 4.88899e-16)
(7.4283e-17 6.59766e-32 0 0.152526 -3.16091e-16 -1.25173e-17 20.7745 6.26157e-15 5.68103e-16)
(6.98776e-17 3.10319e-32 1.93949e-33 0.140123 -2.82111e-16 -1.7838e-17 21.2682 5.67574e-15 4.22936e-16)
(0 0 0 0.128607 -2.46955e-16 -1.05036e-17 21.7491 5.15037e-15 4.95198e-16)
(-1.2367e-16 -2.74603e-32 -1.71627e-33 0.117912 -1.74605e-16 -7.14784e-18 22.2168 4.59871e-15 3.92615e-16)
(-2.32671e-16 -7.74952e-32 -4.84345e-33 0.108035 -1.42741e-16 -1.58328e-17 22.6712 4.41806e-15 3.82764e-16)
(-1.09436e-16 -2.42997e-32 0 0.0988097 -1.35968e-16 -9.99698e-18 23.1123 3.96088e-15 2.15996e-16)
(0 0 0 0.0902354 -1.62244e-16 6.61769e-18 23.5397 3.72001e-15 3.18974e-16)
(9.68408e-17 2.1503e-32 1.34394e-33 0.0822401 -2.04694e-16 -1.49791e-17 23.9532 2.92639e-15 3.30308e-16)
(0 0 0 0.0747313 -3.22171e-17 -1.01169e-17 24.3521 2.25753e-15 8.90387e-17)
(0 0 0 0.0677245 -1.8469e-17 2.19212e-18 24.7359 2.86323e-15 1.53461e-16)
(0 0 0 0.0611295 -1.48405e-16 -9.91832e-18 25.1041 2.20096e-15 1.96337e-16)
(0 0 0 0.0549008 -7.53051e-17 2.80899e-18 25.4555 1.55752e-15 7.90215e-18)
(-1.42669e-16 -1.58395e-32 -9.89966e-34 0.0489883 -7.30072e-17 1.25562e-17 25.789 1.65381e-15 2.26871e-16)
(-1.34208e-16 -1.49001e-32 -9.31255e-34 0.0433481 -1.32299e-16 2.25949e-19 26.1034 9.7648e-16 3.68067e-16)
(-1.26249e-16 -7.00821e-33 -1.75205e-33 0.0379469 -8.30149e-17 -9.42366e-18 26.3971 2.89563e-16 2.4544e-16)
(0 0 0 0.0327444 -1.2629e-17 -1.57086e-17 26.6678 1.92147e-16 6.46013e-17)
(1.11718e-16 3.1008e-33 -3.876e-34 0.0276891 6.27478e-17 -3.93557e-18 26.9135 3.37295e-16 -1.19942e-16)
(0 0 0 0.022719 5.95883e-17 4.07198e-18 27.1309 1.21684e-15 3.52569e-18)
(0 0 0 0.0177982 -8.59705e-17 6.44131e-18 27.3164 1.19567e-15 5.12006e-17)
(0 0 -6.45296e-34 0.0128568 -1.11951e-16 -1.23634e-18 27.4657 -3.64063e-16 1.45589e-16)
(0 -2.4281e-33 0 0.00783382 -1.27127e-17 -7.94573e-18 27.5728 -5.04523e-16 -4.02183e-17)
(2.4688e-16 -1.14205e-33 -1.42756e-34 0.00264954 3.40745e-17 -9.09208e-20 27.6308 -2.2282e-16 -9.66803e-17)
(0 0 0 2.36332 -3.99794e-13 -8.93881e-13 0.419793 2.98255e-13 8.52028e-13)
(-2.27568e-17 2.58715e-30 2.58715e-30 2.17884 -2.46048e-13 1.1162e-13 1.22978 4.67112e-13 3.66803e-13)
(1.07036e-17 0 -1.21686e-30 2.07375 5.46275e-14 2.06494e-13 2.07375 2.06484e-13 5.46641e-14)
(0 0 0 1.97892 1.02273e-13 1.7198e-13 2.94213 4.15599e-14 -5.54927e-14)
(-3.78867e-17 0 0 1.8854 1.00014e-13 1.16798e-13 3.82718 -3.41279e-14 -7.91765e-14)
(0 0 0 1.7861 7.77504e-14 6.64546e-14 4.71921 -6.36983e-14 -6.85826e-14)
(0 0 0 1.67811 5.33681e-14 3.34571e-14 5.60645 -6.80211e-14 -4.99409e-14)
(0 0 0 1.56269 3.52959e-14 1.56564e-14 6.47795 -6.13456e-14 -3.39002e-14)
(5.9335e-17 0 0 1.44361 2.35312e-14 7.07003e-15 7.32587 -5.17253e-14 -2.25501e-14)
(-5.5816e-17 0 0 1.32535 1.59969e-14 3.25236e-15 8.14577 -4.24899e-14 -1.51068e-14)
(0 0 0 1.21172 1.10948e-14 1.64447e-15 8.93601 -3.46411e-14 -1.02515e-14)
(-9.87838e-17 4.38688e-32 5.4836e-33 1.10526 7.79609e-15 9.44698e-16 9.6966 -2.82763e-14 -7.02268e-15)
(9.29253e-17 -1.03168e-32 0 1.00727 5.51106e-15 5.98462e-16 10.4289 -2.31699e-14 -4.87008e-15)
(0 0 0 0.918076 3.93919e-15 4.12107e-16 11.1344 -1.90242e-14 -3.3572e-15)
(-8.22301e-17 0 -2.28234e-33 0.837406 2.78086e-15 3.04134e-16 11.8151 -1.56282e-14 -2.19562e-15)
(0 6.87036e-32 0 0.764619 1.87928e-15 1.91315e-16 12.4727 -1.28637e-14 -1.384e-15)
(0 -6.46291e-32 0 0.699009 1.26908e-15 1.26557e-16 13.109 -1.05633e-14 -7.88568e-16)
(-1.36901e-16 -6.07962e-32 -7.59952e-33 0.639694 8.21328e-16 8.32226e-17 13.7254 -8.65079e-15 -3.4017e-16)
(0 0 0 0.585967 4.26008e-16 2.10612e-17 14.323 -7.08755e-15 -2.18543e-17)
(0 0 0 0.537274 2.22301e-16 -2.86645e-17 14.903 -5.80126e-15 1.63358e-16)
(0 0 0 0.492958 7.07767e-17 -1.71303e-17 15.4666 -4.67338e-15 2.90203e-16)
(0 0 5.95086e-33 0.452545 -1.2507e-16 -1.01938e-17 16.0142 -3.73062e-15 3.28521e-16)
(0 0 0 0.41557 -2.03113e-16 -3.21307e-17 16.5468 -2.9986e-15 5.08023e-16)
(0 0 0 0.381704 -1.94829e-16 -3.34144e-17 17.0646 -2.40096e-15 4.83669e-16)
(-8.92369e-17 -7.92583e-32 -4.95364e-33 0.350654 -2.55818e-16 -8.19612e-18 17.5683 -1.86874e-15 5.26504e-16)
(-1.67889e-16 -7.45578e-32 -4.65986e-33 0.32212 -3.814e-16 -3.31577e-17 18.0581 -1.55403e-15 6.09665e-16)
(0 -7.01361e-32 -4.38351e-33 0.295836 -2.87087e-16 -6.55951e-17 18.5342 -1.36573e-15 5.07033e-16)
(0 0 0 0.271598 -2.48533e-16 -5.00353e-18 18.997 -9.62412e-16 3.46269e-16)
(0 0 0 0.249253 -3.50112e-16 -1.66965e-17 19.4465 -8.18231e-16 5.37633e-16)
(0 0 0 0.228631 -3.15751e-16 -2.13103e-17 19.8827 -7.29598e-16 3.57405e-16)
(-1.2367e-16 -5.49206e-32 0 0.209529 -2.81822e-16 -6.92157e-18 20.3056 -6.47534e-16 4.78316e-16)
(-1.16336e-16 -2.58317e-32 0 0.191815 -1.88994e-16 -2.03534e-17 20.7155 -6.45363e-16 3.7806e-16)
(0 0 0 0.17542 -1.50226e-16 -3.33597e-17 21.1121 -4.32085e-16 3.40058e-16)
(0 -2.28586e-32 -1.42866e-33 0.16021 -1.49808e-16 -1.54769e-17 21.4952 -3.75954e-16 1.40489e-16)
(-1.93682e-16 0 -2.68787e-33 0.146067 -1.97253e-16 1.53015e-17 21.8649 -2.30326e-16 3.09253e-16)
(0 0 0 0.132888 -2.63803e-16 -3.20783e-17 22.2207 -5.12742e-16 3.42668e-16)
(0 0 0 0.120581 -2.09934e-17 -2.22854e-17 22.5625 -6.9243e-16 2.04064e-18)
(0 0 0 0.109082 -6.78853e-18 1.24088e-17 22.8898 -1.00852e-16 1.47863e-16)
(0 0 0 0.0982885 -1.95416e-16 -1.74375e-17 23.2021 -3.76421e-16 2.49549e-16)
(1.42669e-16 0 0 0.0881107 -8.64589e-17 2.84907e-18 23.4988 -6.10668e-16 1.23721e-17)
(0 1.49001e-32 1.86251e-33 0.0784888 -8.28214e-17 3.43466e-17 23.779 -3.22541e-16 2.10054e-16)
(-1.26249e-16 0 0 0.0693584 -1.74165e-16 2.41652e-18 24.0421 -6.06378e-16 4.44445e-16)
(0 3.29629e-33 0 0.0606301 -1.02469e-16 -2.54533e-17 24.2866 -9.44902e-16 2.62422e-16)
(0 0 0 0.0522413 -3.01825e-18 -3.32309e-17 24.5113 -8.34118e-16 4.20063e-17)
(0 2.9169e-33 -7.29226e-34 0.0441133 1.00104e-16 -6.98752e-18 24.7141 -5.77323e-16 -3.1149e-17)
(0 0 0 0.0361514 8.79982e-17 1.23383e-17 24.893 1.47886e-16 2.93889e-17)
(0 0 0 0.0282954 -1.27994e-16 1.06261e-17 25.0453 1.36438e-16 7.97557e-17)
(1.74963e-16 -2.4281e-33 0 0.0204303 -1.50009e-16 -4.61523e-18 25.1672 -8.39631e-16 5.11377e-17)
(0 0 0 0.0124364 5.66402e-19 -1.59209e-17 25.2549 -6.1411e-16 1.21932e-18)
(0 0 0 0.00419787 5.60238e-17 -2.95995e-18 25.3021 -2.17177e-16 -9.34605e-17)
(0 0 0 3.28444 -1.7506e-13 -4.49496e-13 0.399132 6.06636e-14 3.08862e-13)
(-2.14072e-17 6.0843e-31 1.21686e-30 3.06463 -1.8283e-13 -8.55123e-14 1.16755 2.24554e-13 2.37504e-13)
(2.01377e-17 0 -1.14469e-30 2.94213 -5.55307e-14 4.15772e-14 1.97892 1.71976e-13 1.02321e-13)
(0 0 0 2.81733 9.86646e-15 9.54344e-14 2.81733 9.54322e-14 9.91461e-15)
(0 0 0 2.68375 4.4527e-14 9.42519e-14 3.66574 3.20199e-14 -3.66407e-14)
(-3.35262e-17 9.52871e-31 0 2.53484 5.1615e-14 6.92437e-14 4.50649 -9.44716e-15 -4.98692e-14)
(-6.30757e-17 4.4818e-31 0 2.36966 4.5345e-14 4.36366e-14 5.32366 -3.07033e-14 -4.61313e-14)
(5.9335e-17 0 0 2.19358 3.58428e-14 2.53277e-14 6.10634 -3.86045e-14 -3.69518e-14)
(0 0 -1.98298e-31 2.01464 2.70494e-14 1.42012e-14 6.85013 -3.94657e-14 -2.77517e-14)
(0 -3.73076e-31 -9.32691e-32 1.84023 1.99679e-14 8.02833e-15 7.55509 -3.72213e-14 -2.02431e-14)
(0 0 8.77376e-32 1.67539 1.46081e-14 4.75196e-15 8.22394 -3.39122e-14 -1.4649e-14)
(0 0 0 1.52306 1.06618e-14 2.95051e-15 8.86009 -3.0515e-14 -1.05829e-14)
(0 0 0 1.38425 7.80638e-15 1.8957e-15 9.46705 -2.73417e-14 -7.72336e-15)
(0 7.3035e-32 0 1.25879 5.77329e-15 1.30473e-15 10.0481 -2.44237e-14 -5.67681e-15)
(0 -3.43518e-32 0 1.14593 4.24355e-15 9.33165e-16 10.6057 -2.18135e-14 -4.07805e-15)
(0 8.07863e-33 0 1.04447 3.0611e-15 6.19802e-16 11.142 -1.95355e-14 -2.87525e-15)
(2.73802e-16 0 4.7497e-34 0.953193 2.23115e-15 4.17008e-16 11.6591 -1.7477e-14 -2.02364e-15)
(0 0 0 0.870836 1.59684e-15 2.84789e-16 12.1582 -1.56368e-14 -1.43704e-15)
(0 0 0 0.796393 1.05772e-15 1.57088e-16 12.6408 -1.40151e-14 -8.97923e-16)
(-1.1396e-16 -5.06082e-32 0 0.729027 7.4573e-16 5.97165e-17 13.1079 -1.25567e-14 -5.70425e-16)
(-1.07201e-16 0 -1.19017e-32 0.667802 5.12329e-16 2.59336e-17 13.5602 -1.12537e-14 -3.32092e-16)
(2.01687e-16 1.34351e-31 5.59794e-33 0.61203 2.39943e-16 4.17516e-17 13.9984 -1.00094e-14 -2.24059e-16)
(-3.79451e-16 -8.42551e-32 -1.05319e-32 0.561116 8.57823e-17 1.44228e-17 14.4234 -8.93622e-15 1.46523e-16)
(0 0 0 0.51452 4.26687e-17 -2.49051e-17 14.8353 -8.05573e-15 1.64447e-16)
(0 0 0 0.471851 -6.65853e-17 1.13134e-17 15.2346 -7.21072e-15 2.24048e-16)
(0 0 0 0.432644 -2.39885e-16 -3.10151e-17 15.6216 -6.51661e-15 2.94691e-16)
(0 0 0 0.396622 -1.51806e-16 -9.32378e-17 15.9964 -5.91122e-15 2.50289e-16)
(1.39755e-16 0 0 0.363479 -1.27472e-16 4.57235e-18 16.3591 -5.2246e-15 1.88889e-16)
(0 5.8383e-32 0 0.3329 -2.64595e-16 -7.52076e-18 16.7102 -4.69598e-15 3.93451e-16)
(0 0 0 0.304697 -2.46159e-16 -3.11835e-17 17.0492 -4.25719e-15 2.52619e-16)
(0 0 0 0.278669 -2.28616e-16 -5.62443e-18 17.3764 -3.83093e-15 3.26524e-16)
(0 0 0 0.25461 -1.37086e-16 -3.08683e-17 17.6919 -3.50651e-15 2.14632e-16)
(0 0 0 0.232333 -9.70821e-17 -5.30634e-17 17.9957 -3.13885e-15 2.43522e-16)
(5.81045e-16 4.30059e-32 4.03181e-33 0.211697 -1.04243e-16 -1.61716e-17 18.2874 -2.78813e-15 9.13828e-18)
(0 0 0 0.192571 -1.78076e-16 3.61558e-17 18.5672 -2.43546e-15 2.48592e-16)
(0 0 0 0.1748 -2.64788e-16 -5.44751e-17 18.8349 -2.39492e-15 3.15701e-16)
(0 0 0 0.158247 1.71842e-17 -3.64056e-17 19.0904 -2.24046e-15 -1.14345e-16)
(-6.06655e-16 -3.36761e-32 -2.10476e-33 0.142808 2.23706e-17 3.1756e-17 19.3336 -1.7616e-15 1.60928e-16)
(0 0 0 0.128378 -2.038e-16 -2.37332e-17 19.564 -1.77557e-15 2.60704e-16)
(0 0 0 0.114832 -7.0529e-17 -2.86338e-18 19.7814 -1.72709e-15 8.01754e-17)
(0 0 0 0.10208 -7.01889e-17 5.4728e-17 19.9856 -1.39657e-15 1.53486e-16)
(0 -3.29629e-33 0 0.090007 -1.88658e-16 6.27508e-18 20.1759 -1.43505e-15 3.9867e-16)
(0 0 0 0.0785257 -1.0338e-16 -4.42924e-17 20.3517 -1.54617e-15 2.76422e-16)
(0 0 0 0.0675366 1.73079e-17 -3.96754e-17 20.5123 -1.35424e-15 2.74973e-17)
(-1.9772e-16 3.42989e-34 3.42989e-34 0.0569105 1.3696e-16 -5.06477e-18 20.6565 -1.05741e-15 1.18289e-16)
(1.85994e-16 0 0 0.0465809 1.12599e-16 1.18288e-17 20.783 -5.38013e-16 4.21523e-17)
(0 0 0 0.0364019 -1.50401e-16 7.86928e-18 20.89 -5.14487e-16 5.82198e-17)
(3.29174e-16 -4.56821e-33 1.14205e-33 0.0262518 -1.61405e-16 -6.15325e-18 20.9755 -9.59502e-16 -1.8909e-17)
(0 4.29728e-33 1.3429e-34 0.0159788 2.46921e-17 -1.63173e-17 21.0367 -6.06715e-16 2.00884e-17)
(0 0 5.05304e-34 0.00539017 8.18488e-17 -5.59703e-18 21.0697 -2.13408e-16 -7.88298e-17)
(0 0 -6.0843e-31 4.21755 -6.67338e-14 -2.42151e-13 0.381762 1.97067e-14 1.1617e-13)
(0 0 1.14469e-30 3.96301 -1.12567e-13 -1.14439e-13 1.11067 1.07731e-13 1.39445e-13)
(-3.78867e-17 5.38403e-31 1.07681e-30 3.82718 -7.92133e-14 -3.41061e-14 1.8854 1.16805e-13 1.00055e-13)
(0 1.01294e-30 0 3.66574 -3.66828e-14 3.20175e-14 2.68375 9.42579e-14 4.45674e-14)
(0 0 0 3.47437 1.09199e-15 5.922e-14 3.47437 5.92326e-14 1.12055e-15)
(6.30757e-17 0 -4.4818e-31 3.2529 2.15806e-14 5.71425e-14 4.22618 2.68691e-14 -2.23326e-14)
(0 0 0 3.00915 2.84871e-14 4.37643e-14 4.92086 3.51061e-15 -3.02335e-14)
(-1.11632e-16 7.93194e-31 3.96597e-31 2.75687 2.80099e-14 2.98921e-14 5.55508 -1.09352e-14 -2.94947e-14)
(0 3.73076e-31 0 2.50933 2.42882e-14 1.93556e-14 6.13512 -1.87598e-14 -2.52335e-14)
(-9.87838e-17 3.50951e-31 1.75475e-31 2.27564 1.96928e-14 1.23586e-14 6.66994 -2.23573e-14 -2.01807e-14)
(0 0 0 2.06062 1.53807e-14 7.97535e-15 7.16817 -2.34987e-14 -1.56339e-14)
(-1.74829e-16 0 0 1.86576 1.17757e-14 5.22209e-15 7.63721 -2.33432e-14 -1.1963e-14)
(1.6446e-16 -1.4607e-31 -7.3035e-32 1.69085 8.99529e-15 3.45056e-15 8.08221 -2.25086e-14 -9.13825e-15)
(1.54707e-16 -1.37407e-31 0 1.53434 6.92303e-15 2.4038e-15 8.50746 -2.124e-14 -6.95813e-15)
(0 0 0 1.39426 5.26772e-15 1.74591e-15 8.91548 -1.98133e-14 -5.27048e-15)
(0 0 0 1.269 3.95589e-15 1.18715e-15 9.30866 -1.84241e-14 -3.93627e-15)
(-1.28782e-16 0 7.14882e-33 1.15667 3.02802e-15 7.82102e-16 9.68839 -1.70459e-14 -2.95331e-15)
(0 0 0 1.05558 2.29266e-15 5.64533e-16 10.0559 -1.56671e-14 -2.28556e-15)
(0 0 0 0.964457 1.65811e-15 3.72451e-16 10.4125 -1.43644e-14 -1.61922e-15)
(0 0 0 0.881942 1.26211e-15 1.86273e-16 10.7583 -1.31581e-14 -1.19675e-15)
(0 0 0 0.807006 9.72975e-16 1.07975e-16 11.094 -1.20282e-14 -9.5474e-16)
(0 0 0 0.738882 6.49089e-16 1.48039e-16 11.4202 -1.08623e-14 -7.24577e-16)
(-1.78474e-16 0 -4.95364e-33 0.676718 4.11305e-16 9.38417e-17 11.7369 -9.83872e-15 -2.82492e-16)
(-1.67889e-16 -1.86395e-32 -4.65986e-33 0.6198 3.14564e-16 -1.07931e-17 12.0445 -9.01744e-15 -5.97326e-17)
(-1.57932e-16 -1.7534e-32 -4.38351e-33 0.567735 1.73279e-16 2.76868e-17 12.3431 -8.19346e-15 1.93258e-17)
(2.97132e-16 0 8.24707e-33 0.519984 -4.0356e-17 -2.52959e-17 12.6326 -7.44824e-15 -5.05476e-18)
(0 0 0 0.476031 3.03886e-17 -9.04685e-17 12.9133 -6.74224e-15 -2.01742e-17)
(0 0 -3.64894e-33 0.435645 3.3985e-17 2.65061e-17 13.1849 -6.05418e-15 1.24608e-16)
(-4.9468e-16 0 -1.37301e-32 0.398439 -1.3847e-16 -6.56539e-19 13.4475 -5.46642e-15 2.1617e-16)
(0 0 0 0.36411 -1.38015e-16 -3.61532e-17 13.7011 -4.96344e-15 1.76127e-16)
(0 0 0 0.33248 -1.35953e-16 -1.33995e-17 13.9454 -4.45952e-15 1.56606e-16)
(0 0 0 0.303249 -6.363e-17 -3.59485e-17 14.1805 -4.03285e-15 1.07027e-16)
(-1.93682e-16 -2.1503e-32 0 0.276203 -2.76404e-17 -6.67062e-17 14.4061 -3.68985e-15 1.863e-16)
(0 -2.02277e-32 0 0.251212 -3.67801e-17 -1.69838e-17 14.6224 -3.28526e-15 7.98747e-17)
(0 0 0 0.228076 -1.36029e-16 6.23255e-17 14.8291 -2.91527e-15 1.88731e-16)
(0 0 0 0.206592 -2.35812e-16 -8.13755e-17 15.026 -2.74176e-15 2.2608e-16)
(3.03327e-16 4.20951e-33 0 0.186659 6.21152e-17 -4.55828e-17 15.2132 -2.44427e-15 -1.75301e-16)
(0 0 0 0.168114 5.33056e-17 6.02774e-17 15.3905 -2.12913e-15 2.12107e-16)
(0 0 0 0.150798 -1.9093e-16 -2.58032e-17 15.5577 -2.02639e-15 2.05963e-16)
(-2.52497e-16 -3.5041e-33 -8.76026e-34 0.134619 -4.51698e-17 -9.9196e-18 15.7146 -1.85055e-15 1.23245e-16)
(0 0 0 0.119428 -5.10376e-17 6.67089e-17 15.8612 -1.58341e-15 1.78721e-16)
(0 0 0 0.105093 -1.88144e-16 1.57299e-17 15.9971 -1.51985e-15 4.00084e-16)
(-4.2037e-16 5.83381e-33 -2.9169e-33 0.0915238 -9.56098e-17 -5.91786e-17 16.122 -1.52365e-15 3.29327e-16)
(3.9544e-16 0 6.85979e-34 0.07857 3.91164e-17 -4.78924e-17 16.2352 -1.34751e-15 2.63869e-17)
(-3.71988e-16 0 0 0.0661129 1.65863e-16 -5.447e-18 16.3366 -1.08049e-15 3.46328e-17)
(0 -4.85621e-33 0 0.0540188 1.30605e-16 7.39453e-18 16.4252 -7.58068e-16 5.96955e-17)
(0 0 5.71026e-34 0.0421638 -1.56887e-16 6.467e-18 16.4997 -7.08915e-16 -4.79012e-18)
(3.09652e-16 -8.59457e-33 1.07432e-33 0.0303861 -1.57455e-16 -7.43661e-18 16.5592 -8.09823e-16 -6.86343e-18)
(0 0 0 0.0184781 4.81054e-17 -1.9565e-17 16.6014 -5.04906e-16 -6.40649e-17)
(0 0 0 0.00623471 1.05954e-16 -9.10985e-18 16.6242 -1.93535e-16 -2.04284e-16)
(0 0 0 5.16225 -1.75588e-14 -1.26782e-13 0.36445 5.46122e-15 5.05997e-14)
(-1.89434e-17 1.34601e-31 0 4.86953 -6.39483e-14 -1.01286e-13 1.05312 4.56684e-14 8.11972e-14)
(3.56398e-17 -2.53236e-31 0 4.71921 -6.86167e-14 -6.36761e-14 1.7861 6.64608e-14 7.77815e-14)
(3.35262e-17 -4.76436e-31 0 4.50649 -4.99122e-14 -9.45756e-15 2.53484 6.92505e-14 5.16507e-14)
(6.30757e-17 0 -8.9636e-31 4.22618 -2.23316e-14 2.68214e-14 3.2529 5.71354e-14 2.16168e-14)
(0 0 0 3.89486 -8.28152e-16 3.91211e-14 3.89486 3.91423e-14 -8.39751e-16)
(1.11632e-16 -7.93194e-31 -7.93194e-31 3.54405 1.16514e-14 3.68499e-14 4.44368 2.18734e-14 -1.34604e-14)
(0 0 0 3.20213 1.70401e-14 2.92409e-14 4.91094 8.05574e-15 -1.83748e-14)
(0 0 0 2.88509 1.78931e-14 2.13801e-14 5.31748 -1.7659e-15 -1.86631e-14)
(9.29253e-17 0 -3.30137e-31 2.59858 1.63275e-14 1.50612e-14 5.68193 -8.13404e-15 -1.67514e-14)
(1.74829e-16 -3.10558e-31 0 2.34312 1.38263e-14 1.04417e-14 6.01772 -1.19618e-14 -1.41329e-14)
(0 -2.9214e-31 -1.4607e-31 2.11653 1.12434e-14 7.19228e-15 6.3337 -1.4046e-14 -1.15589e-14)
(1.54707e-16 0 -6.87036e-32 1.91575 9.05337e-15 4.97574e-15 6.63581 -1.49564e-14 -9.27906e-15)
(-4.36595e-16 2.58516e-31 1.29258e-31 1.73752 7.30161e-15 3.54571e-15 6.92737 -1.50926e-14 -7.31938e-15)
(0 -1.21592e-31 0 1.57896 5.75566e-15 2.57933e-15 7.21085 -1.4785e-14 -5.80016e-15)
(0 0 0 1.43748 4.46196e-15 1.80971e-15 7.4875 -1.4241e-14 -4.57328e-15)
(-2.42288e-16 1.07598e-31 2.68994e-32 1.31067 3.54645e-15 1.21634e-15 7.75823 -1.35704e-14 -3.59076e-15)
(-2.27919e-16 0 0 1.1967 2.80342e-15 8.88746e-16 8.02356 -1.27519e-14 -2.82171e-15)
(0 0 5.95086e-33 1.09378 2.12079e-15 6.23986e-16 8.28371 -1.18916e-14 -2.16355e-15)
(0 0 0 1.00052 1.67734e-15 3.27973e-16 8.53894 -1.10841e-14 -1.69084e-15)
(0 0 0 0.915858 1.37327e-15 2.04028e-16 8.78936 -1.02553e-14 -1.39316e-15)
(0 0 1.23841e-33 0.838699 1.01454e-15 2.7795e-16 9.03487 -9.31816e-15 -1.10314e-15)
(1.67889e-16 -1.86395e-32 0 0.768185 7.00538e-16 2.39892e-16 9.27524 -8.47161e-15 -7.42485e-16)
(-3.15865e-16 8.76701e-33 -8.76701e-33 0.703676 5.56669e-16 7.30641e-17 9.51046 -7.83093e-15 -3.0129e-16)
(0 4.12354e-33 -8.24707e-33 0.644492 3.95592e-16 2.78469e-17 9.74056 -7.22479e-15 -1.49037e-16)
(0 0 0 0.590095 1.62477e-16 -4.27413e-17 9.96493 -6.59541e-15 -2.31587e-16)
(0 0 0 0.540115 2.11504e-16 -5.98793e-17 10.1836 -5.91888e-15 -2.49796e-16)
(-2.4734e-16 0 0 0.494052 1.85662e-16 6.33504e-17 10.3963 -5.35197e-15 -3.43618e-17)
(0 0 0 0.45158 -1.25357e-17 5.255e-18 10.6027 -4.85813e-15 2.99903e-17)
(-4.37745e-16 -3.03747e-33 0 0.412411 -2.77279e-17 -4.43355e-17 10.8027 -4.4188e-15 1.51446e-16)
(0 0 0 0.376223 -3.8123e-17 -1.94826e-17 10.9959 -3.96398e-15 -8.78372e-17)
(0 0 0 0.342804 1.11559e-17 -2.54492e-17 11.182 -3.5455e-15 1.2024e-16)
(0 0 0 0.311913 3.74082e-17 -5.62029e-17 11.3611 -3.27927e-15 5.79054e-17)
(-3.4278e-16 0 0 0.283352 2.73781e-17 -1.6847e-17 11.5328 -2.93606e-15 2.06696e-16)
(0 0 0 0.256902 -9.0174e-17 5.89591e-17 11.6968 -2.64302e-15 9.04857e-17)
(3.03327e-16 5.26189e-34 0 0.232385 -1.94188e-16 -1.07132e-16 11.8531 -2.42247e-15 7.81235e-17)
(0 -1.97993e-33 0 0.209643 1.03607e-16 -4.13797e-17 12.0015 -2.08956e-15 1.57507e-17)
(-5.36832e-16 -7.45004e-33 -7.45004e-33 0.188513 7.86328e-17 8.39075e-17 12.1418 -1.92901e-15 2.04204e-16)
(0 0 0 0.168839 -1.68951e-16 -3.47674e-17 12.2738 -1.80119e-15 1.20361e-16)
(0 0 0 0.150465 -1.86943e-17 -6.23796e-18 12.3974 -1.57001e-15 8.59161e-17)
(0 0 0 0.133275 -3.29241e-17 8.50054e-17 12.5124 -1.3818e-15 2.03446e-16)
(-4.2037e-16 5.83381e-33 -5.83381e-33 0.117099 -1.8205e-16 2.28154e-17 12.6189 -1.30766e-15 3.19104e-16)
(0 0 0 0.101806 -8.70115e-17 -8.03974e-17 12.7162 -1.27664e-15 2.64118e-16)
(0 0 0 0.0872808 5.7792e-17 -6.80729e-17 12.8044 -1.14981e-15 -1.17233e-17)
(0 0 0 0.0733486 1.87693e-16 -2.10832e-18 12.8829 -9.23459e-16 -1.05466e-16)
(0 0 0 0.0598616 1.43421e-16 9.02258e-18 12.9512 -7.40623e-16 -2.08009e-19)
(3.09652e-16 0 5.3716e-34 0.0466775 -1.53724e-16 2.54034e-18 13.0087 -6.81782e-16 -1.05363e-16)
(2.91288e-16 -8.08486e-33 0 0.0335986 -1.47392e-16 -1.03589e-17 13.0543 -6.00551e-16 -5.22479e-17)
(-2.74013e-16 0 4.75336e-34 0.0204172 6.63532e-17 -2.97579e-17 13.0867 -3.95018e-16 -2.00404e-16)
(5.15524e-16 -7.15433e-33 -3.57717e-33 0.00688882 1.26959e-16 -1.48933e-17 13.1041 -1.67494e-16 -3.76497e-16)
(9.47168e-18 0 -6.73004e-32 6.11361 4.47634e-17 -6.61716e-14 0.345676 -3.63863e-16 2.08355e-14)
(3.56398e-17 -3.16545e-32 -2.53236e-31 5.77682 -3.44963e-14 -7.80928e-14 0.991921 1.66271e-14 4.43082e-14)
(0 0 0 5.60645 -4.99772e-14 -6.79951e-14 1.67811 3.34699e-14 5.33859e-14)
(0 0 0 5.32366 -4.61883e-14 -3.06991e-14 2.36966 4.367e-14 4.53596e-14)
(0 0 0 4.92086 -3.02496e-14 3.45002e-15 3.00915 4.37723e-14 2.85078e-14)
(-1.11632e-16 7.93194e-31 7.93194e-31 4.44368 -1.34029e-14 2.17857e-14 3.54405 3.68295e-14 1.1678e-14)
(0 0 0 3.9638 -7.18524e-16 2.69566e-14 3.9638 2.69852e-14 -7.45765e-16)
(0 0 0 3.5281 7.01211e-15 2.50551e-14 4.29359 1.70407e-14 -8.03938e-15)
(0 0 0 3.14877 1.06992e-14 2.05642e-14 4.56468 8.49195e-15 -1.12689e-14)
(0 0 0 2.82159 1.16066e-14 1.58299e-14 4.80107 1.90906e-15 -1.19303e-14)
(3.2892e-16 -2.9214e-31 -4.3821e-31 2.53851 1.09461e-14 1.17664e-14 5.01798 -2.77272e-15 -1.12403e-14)
(1.54707e-16 -5.49629e-31 0 2.29206 9.64308e-15 8.57374e-15 5.22432 -5.88204e-15 -9.93196e-15)
(0 0 0 2.07606 8.27201e-15 6.21156e-15 5.42523 -7.79796e-15 -8.43494e-15)
(0 0 0 1.8854 6.999e-15 4.54075e-15 5.62338 -8.88159e-15 -7.00634e-15)
(0 2.28762e-31 1.14381e-31 1.71602 5.73935e-15 3.3326e-15 5.82045 -9.41854e-15 -5.80416e-15)
(0 0 0 1.56485 4.60164e-15 2.3887e-15 6.01688 -9.57176e-15 -4.81899e-15)
(0 0 0 1.42929 3.77699e-15 1.68039e-15 6.21315 -9.45506e-15 -3.96109e-15)
(-2.14402e-16 1.90427e-31 2.38034e-32 1.30703 3.09132e-15 1.25265e-15 6.40912 -9.13556e-15 -3.14775e-15)
(0 0 0 1.1965 2.40673e-15 8.86121e-16 6.60448 -8.72964e-15 -2.55454e-15)
(0 0 0 1.09615 1.95283e-15 5.17334e-16 6.79923 -8.28733e-15 -2.06923e-15)
(-3.56948e-16 0 -4.95364e-33 1.00468 1.67445e-15 3.44322e-16 6.99294 -7.77165e-15 -1.56498e-15)
(0 0 0 0.921093 1.31892e-15 3.91368e-16 7.18527 -7.13241e-15 -1.29887e-15)
(-3.15865e-16 0 -1.09588e-33 0.844522 9.37963e-16 3.76282e-16 7.376 -6.50169e-15 -1.06239e-15)
(0 0 0 0.774267 7.27573e-16 1.90623e-16 7.56457 -6.04404e-15 -7.23939e-16)
(-2.7951e-16 3.10319e-32 0 0.709674 5.57921e-16 5.24969e-17 7.75055 -5.66825e-15 -4.22378e-16)
(0 0 3.64894e-33 0.65016 3.43024e-16 -5.53936e-17 7.93372 -5.21709e-15 -3.77566e-16)
(0 0 0 0.595276 3.75164e-16 -3.80917e-17 8.11363 -4.65467e-15 -3.66899e-16)
(0 0 0 0.544645 3.10097e-16 1.00615e-16 8.28972 -4.21869e-15 -2.01003e-16)
(0 0 0 0.497872 8.99239e-17 4.55034e-17 8.46167 -3.82949e-15 -2.19636e-16)
(-4.11784e-16 1.14293e-32 -5.71466e-33 0.45462 6.75619e-17 -6.10369e-17 8.62915 -3.52983e-15 1.40535e-16)
(0 0 0 0.414646 5.34947e-17 -2.30555e-17 8.7917 -3.15102e-15 -2.65446e-16)
(-3.6439e-16 0 -5.05693e-33 0.377669 7.67277e-17 -4.20075e-18 8.94912 -2.78069e-15 1.04586e-16)
(3.4278e-16 0 0 0.343439 8.84395e-17 -5.15305e-17 9.10085 -2.61447e-15 -6.17509e-17)
(0 0 0 0.311749 7.7945e-17 -9.41714e-18 9.24676 -2.34612e-15 1.47164e-16)
(0 0 0 0.282409 -4.85619e-17 3.94587e-17 9.38632 -2.15232e-15 -4.35226e-17)
(0 -7.91973e-33 3.95986e-33 0.255208 -1.47798e-16 -9.18154e-17 9.51953 -1.89608e-15 -7.43374e-17)
(-8.05248e-16 1.49001e-32 -1.16407e-34 0.229991 1.36812e-16 -2.74915e-17 9.64603 -1.61115e-15 3.45246e-16)
(0 0 0 0.206568 9.39049e-17 7.52557e-17 9.76575 -1.58902e-15 1.10062e-16)
(4.75045e-16 0 0 0.184768 -1.43503e-16 -4.16712e-17 9.87821 -1.4476e-15 2.33917e-17)