/*--------------------------------*- C++ -*----------------------------------*\
| =========                 |                                                 |
| \\      /  F ield         | OpenFOAM: The Open Source CFD Toolbox           |
|  \\    /   O peration     | Version:  v1912                                 |
|   \\  /    A nd           | Website:  www.openfoam.com                      |
|    \\/     M anipulation  |                                                 |
\*---------------------------------------------------------------------------*/
FoamFile
{
    version     2.0;
    format      ascii;
    class       volScalarField;
    location    "10000";
    object      nut;
}
// * * * * * * * * * * * * * * * * * * * * * * * * * * * * * * * * * * * * * //

dimensions      [0 2 -1 0 0 0 0];


internalField   nonuniform List<scalar> 
2500
(
1.22542e-05
1.27577e-05
1.382e-05
1.52981e-05
1.70161e-05
1.88333e-05
2.06561e-05
2.24287e-05
2.41208e-05
2.57186e-05
2.72192e-05
2.86258e-05
2.9945e-05
3.1185e-05
3.23541e-05
3.34602e-05
3.45101e-05
3.551e-05
3.64649e-05
3.73791e-05
3.82563e-05
3.90997e-05
3.99117e-05
4.06947e-05
4.14505e-05
4.21806e-05
4.28865e-05
4.35693e-05
4.423e-05
4.48694e-05
4.54881e-05
4.60866e-05
4.66654e-05
4.72246e-05
4.77644e-05
4.82846e-05
4.8785e-05
4.92652e-05
4.97245e-05
5.01621e-05
5.05768e-05
5.09671e-05
5.13311e-05
5.16665e-05
5.19704e-05
5.22392e-05
5.24684e-05
5.26526e-05
5.27849e-05
5.28566e-05
1.27577e-05
1.28256e-05
1.32618e-05
1.39978e-05
1.50632e-05
1.63819e-05
1.78349e-05
1.9323e-05
2.07818e-05
2.21757e-05
2.34894e-05
2.47199e-05
2.58712e-05
2.69505e-05
2.79659e-05
2.89252e-05
2.98355e-05
3.07029e-05
3.15327e-05
3.23292e-05
3.30961e-05
3.38364e-05
3.4553e-05
3.52479e-05
3.59231e-05
3.65802e-05
3.72205e-05
3.78453e-05
3.84554e-05
3.90517e-05
3.96347e-05
4.02048e-05
4.07623e-05
4.13072e-05
4.18394e-05
4.23585e-05
4.28638e-05
4.33546e-05
4.38296e-05
4.42874e-05
4.47262e-05
4.51436e-05
4.55369e-05
4.59027e-05
4.62371e-05
4.65352e-05
4.67912e-05
4.69981e-05
4.71473e-05
4.72284e-05
1.382e-05
1.32618e-05
1.38504e-05
1.49697e-05
1.64297e-05
1.8236e-05
2.03171e-05
2.25481e-05
2.48157e-05
2.70419e-05
2.91831e-05
3.12208e-05
3.31523e-05
3.49833e-05
3.67235e-05
3.83832e-05
3.99723e-05
4.15e-05
4.29741e-05
4.44014e-05
4.57876e-05
4.7138e-05
4.84567e-05
4.97475e-05
5.10138e-05
5.22583e-05
5.34834e-05
5.46912e-05
5.58833e-05
5.70611e-05
5.82254e-05
5.93768e-05
6.05153e-05
6.16408e-05
6.27521e-05
6.38481e-05
6.49268e-05
6.59853e-05
6.70204e-05
6.80277e-05
6.9002e-05
6.99371e-05
7.08253e-05
7.16577e-05
7.24237e-05
7.31106e-05
7.37036e-05
7.41848e-05
7.4533e-05
7.47226e-05
1.52981e-05
1.39978e-05
1.49697e-05
1.77547e-05
2.16325e-05
2.61403e-05
3.10756e-05
3.62583e-05
4.15005e-05
4.66512e-05
5.16151e-05
5.6346e-05
6.08319e-05
6.50805e-05
6.9109e-05
7.29382e-05
7.6589e-05
8.00809e-05
8.34316e-05
8.66569e-05
8.9771e-05
9.27861e-05
9.57135e-05
9.8563e-05
0.000101343
0.000104063
0.000106727
0.000109344
0.000111917
0.000114451
0.000116949
0.000119414
0.000121847
0.000124249
0.000126618
0.000128952
0.000131248
0.0001335
0.000135702
0.000137845
0.000139918
0.000141907
0.000143797
0.000145568
0.000147198
0.00014866
0.000149923
0.000150947
0.000151688
0.000152092
1.70161e-05
1.50632e-05
1.64297e-05
2.16325e-05
3.04486e-05
4.15689e-05
5.36832e-05
6.59928e-05
7.80329e-05
8.95277e-05
0.000100335
0.00011041
0.000119764
0.000128445
0.000136512
0.000144027
0.00015105
0.000157636
0.000163834
0.000169689
0.000175239
0.000180521
0.000185565
0.0001904
0.00019505
0.000199538
0.000203885
0.000208108
0.000212222
0.000216241
0.000220177
0.000224039
0.000227833
0.000231565
0.000235236
0.000238847
0.000242395
0.000245874
0.000249274
0.000252584
0.000255787
0.000258864
0.00026179
0.000264534
0.000267063
0.000269332
0.000271293
0.000272886
0.000274039
0.000274667
1.88333e-05
1.63819e-05
1.8236e-05
2.61403e-05
4.15689e-05
6.3108e-05
8.73573e-05
0.000111681
0.000134783
0.000156157
0.00017568
0.000193401
0.000209453
0.000223998
0.0002372
0.000249216
0.000260189
0.000270244
0.000279494
0.000288039
0.000295965
0.000303351
0.000310267
0.000316772
0.000322924
0.00032877
0.000334355
0.000339717
0.00034489
0.000349905
0.000354788
0.00035956
0.000364238
0.000368836
0.000373364
0.000377825
0.00038222
0.000386545
0.00039079
0.00039494
0.000398975
0.000402869
0.000406587
0.000410091
0.000413331
0.000416251
0.000418781
0.000420841
0.000422335
0.000423151
2.06561e-05
1.78349e-05
2.03171e-05
3.10756e-05
5.36832e-05
8.73573e-05
0.000126547
0.000166052
0.000203201
0.000237062
0.0002675
0.000294694
0.000318935
0.000340538
0.000359809
0.000377027
0.000392445
0.000406286
0.000418746
0.000430001
0.000440206
0.000449498
0.000458001
0.000465824
0.000473064
0.000479811
0.000486142
0.000492126
0.000497827
0.000503299
0.000508588
0.000513736
0.000518775
0.000523734
0.000528631
0.00053348
0.000538287
0.000543052
0.000547765
0.00055241
0.000556964
0.000561393
0.000565656
0.000569702
0.000573468
0.000576881
0.000579854
0.000582285
0.000584054
0.000585021
2.24287e-05
1.9323e-05
2.25481e-05
3.62583e-05
6.59928e-05
0.000111681
0.000166052
0.000221568
0.000274071
0.000321984
0.00036499
0.000403284
0.000437247
0.000467306
0.000493884
0.000517374
0.000538132
0.000556483
0.000572716
0.000587092
0.000599844
0.000611184
0.0006213
0.000630364
0.000638531
0.000645941
0.000652718
0.000658975
0.000664814
0.000670323
0.000675581
0.000680656
0.000685606
0.000690477
0.000695307
0.000700122
0.00070494
0.000709765
0.000714595
0.000719412
0.00072419
0.000728892
0.000733467
0.000737853
0.000741973
0.000745736
0.000749037
0.000751752
0.000753735
0.000754822
2.41208e-05
2.07818e-05
2.48157e-05
4.15005e-05
7.80329e-05
0.000134783
0.000203201
0.000274071
0.000341974
0.000404599
0.000461258
0.000511992
0.000557141
0.000597149
0.000632488
0.000663616
0.000690966
0.00071494
0.000735908
0.000754214
0.00077017
0.000784064
0.000796161
0.000806703
0.000815914
0.000823996
0.000831135
0.0008375
0.000843243
0.0008485
0.000853393
0.00085803
0.000862501
0.000866884
0.000871241
0.000875622
0.000880059
0.000884571
0.000889163
0.000893822
0.000898524
0.000903225
0.00090787
0.000912384
0.000916677
0.000920641
0.000924148
0.000927054
0.000929189
0.000930363
2.57186e-05
2.21757e-05
2.70419e-05
4.66512e-05
8.95277e-05
0.000156157
0.000237062
0.000321984
0.000404599
0.000481898
0.00055272
0.000616811
0.000674339
0.000725661
0.000771208
0.000811438
0.000846804
0.000877748
0.000904694
0.000928042
0.000948173
0.000965446
0.000980198
0.000992747
0.00100339
0.0010124
0.00102003
0.00102652
0.00103209
0.00103694
0.00104124
0.00104515
0.00104881
0.00105234
0.00105584
0.00105939
0.00106305
0.00106686
0.00107084
0.00107499
0.00107929
0.00108369
0.00108813
0.00109253
0.00109679
0.00110078
0.00110436
0.00110735
0.00110956
0.00111078
2.72192e-05
2.34894e-05
2.91831e-05
5.16151e-05
0.000100335
0.00017568
0.0002675
0.00036499
0.000461258
0.00055272
0.000637725
0.000715646
0.000786386
0.000850118
0.000907153
0.000957875
0.0010027
0.00104205
0.00107636
0.00110606
0.00113157
0.0011533
0.00117165
0.00118699
0.00119971
0.00121014
0.00121862
0.00122546
0.00123096
0.00123537
0.00123896
0.00124195
0.00124454
0.0012469
0.00124918
0.00125151
0.00125399
0.00125669
0.00125966
0.0012629
0.00126642
0.00127018
0.00127411
0.00127813
0.00128211
0.00128593
0.00128941
0.00129235
0.00129455
0.00129578
2.86258e-05
2.47199e-05
3.12208e-05
5.6346e-05
0.00011041
0.000193401
0.000294694
0.000403284
0.000511992
0.000616811
0.000715646
0.000807478
0.000891891
0.000968811
0.00103836
0.00110079
0.0011564
0.00120557
0.00124868
0.00128614
0.00131839
0.00134584
0.00136893
0.0013881
0.00140376
0.00141634
0.00142625
0.00143387
0.00143957
0.00144371
0.00144662
0.0014486
0.00144993
0.00145085
0.0014516
0.00145234
0.00145323
0.0014544
0.00145592
0.00145784
0.00146017
0.0014629
0.00146596
0.00146927
0.00147269
0.00147609
0.00147927
0.00148201
0.0014841
0.00148527
2.9945e-05
2.58712e-05
3.31523e-05
6.08319e-05
0.000119764
0.000209453
0.000318935
0.000437247
0.000557141
0.000674339
0.000786386
0.000891891
0.000990105
0.00108067
0.00116348
0.00123859
0.00130616
0.00136644
0.00141973
0.00146638
0.00150677
0.00154132
0.00157047
0.00159467
0.00161438
0.00163006
0.00164219
0.00165123
0.00165762
0.00166182
0.00166424
0.00166526
0.00166527
0.00166459
0.00166352
0.00166234
0.00166126
0.00166046
0.00166008
0.00166021
0.00166091
0.00166217
0.00166395
0.00166617
0.00166871
0.00167139
0.00167403
0.00167639
0.00167823
0.00167927
3.1185e-05
2.69505e-05
3.49833e-05
6.50805e-05
0.000128445
0.000223998
0.000340538
0.000467306
0.000597149
0.000725661
0.000850118
0.000968811
0.00108067
0.00118505
0.00128158
0.00137009
0.00145056
0.00152308
0.00158781
0.00164501
0.00169497
0.00173806
0.00177467
0.00180524
0.00183025
0.00185018
0.00186554
0.00187686
0.00188466
0.00188945
0.00189174
0.00189203
0.00189078
0.00188843
0.00188538
0.00188199
0.00187857
0.00187539
0.00187265
0.00187051
0.00186907
0.00186838
0.00186842
0.00186912
0.00187038
0.00187201
0.00187383
0.00187558
0.00187701
0.00187784
3.23541e-05
2.79659e-05
3.67235e-05
6.9109e-05
0.000136512
0.0002372
0.000359809
0.000493884
0.000632488
0.000771208
0.000907153
0.00103836
0.00116348
0.00128158
0.00139202
0.0014944
0.00158848
0.00167416
0.00175144
0.00182043
0.00188131
0.00193435
0.00197987
0.00201825
0.00204994
0.00207542
0.00209522
0.00210988
0.00211998
0.00212611
0.00212886
0.00212882
0.00212656
0.00212262
0.00211752
0.00211173
0.00210567
0.0020997
0.00209414
0.00208923
0.00208514
0.00208196
0.00207974
0.00207844
0.00207797
0.00207816
0.00207882
0.0020797
0.00208053
0.00208106
3.34602e-05
2.89252e-05
3.83832e-05
7.29382e-05
0.000144027
0.000249216
0.000377027
0.000517374
0.000663616
0.000811438
0.000957875
0.00110079
0.00123859
0.00137009
0.0014944
0.00161087
0.00171903
0.00181857
0.00190931
0.00199118
0.00206422
0.00212856
0.0021844
0.00223205
0.00227188
0.00230433
0.0023299
0.00234915
0.00236267
0.0023711
0.0023751
0.00237534
0.0023725
0.00236722
0.00236014
0.00235187
0.00234295
0.00233387
0.00232507
0.00231688
0.00230958
0.00230336
0.00229831
0.00229447
0.00229176
0.00229006
0.00228918
0.00228887
0.00228889
0.00228898
3.45101e-05
2.98355e-05
3.99723e-05
7.6589e-05
0.00015105
0.000260189
0.000392445
0.000538132
0.000690966
0.000846804
0.0010027
0.0011564
0.00130616
0.00145056
0.00158848
0.00171903
0.00184151
0.0019554
0.0020603
0.00215596
0.00224224
0.0023191
0.00238662
0.00244497
0.00249442
0.00253532
0.00256812
0.00259334
0.00261157
0.00262346
0.00262971
0.00263106
0.00262826
0.00262209
0.00261329
0.00260261
0.00259073
0.00257829
0.00256586
0.00255393
0.00254288
0.00253302
0.00252454
0.00251755
0.00251204
0.00250793
0.00250505
0.0025032
0.00250215
0.00250167
3.551e-05
3.07029e-05
4.15e-05
8.00809e-05
0.000157636
0.000270244
0.000406286
0.000556483
0.000714939
0.000877748
0.00104205
0.00120557
0.00136644
0.00152308
0.00167416
0.00181857
0.0019554
0.00208389
0.00220344
0.0023136
0.00241402
0.00250449
0.00258492
0.00265533
0.00271584
0.00276669
0.00280824
0.00284092
0.00286528
0.00288196
0.00289165
0.00289515
0.00289326
0.00288685
0.00287679
0.00286395
0.00284917
0.00283324
0.0028169
0.00280079
0.00278546
0.00277137
0.00275882
0.00274804
0.0027391
0.002732
0.00272663
0.00272282
0.00272039
0.00271919
3.64649e-05
3.15327e-05
4.29741e-05
8.34316e-05
0.000163834
0.000279494
0.000418746
0.000572716
0.000735908
0.000904694
0.00107636
0.00124868
0.00141973
0.00158781
0.00175144
0.00190931
0.0020603
0.00220344
0.00233792
0.00246307
0.00257835
0.00268334
0.00277777
0.00286148
0.00293442
0.00299669
0.0030485
0.00309019
0.00312222
0.00314515
0.00315967
0.00316654
0.00316664
0.00316088
0.00315022
0.00313568
0.00311822
0.00309883
0.0030784
0.00305779
0.00303771
0.0030188
0.00300153
0.00298628
0.00297324
0.00296251
0.00295408
0.00294784
0.0029437
0.00294158
3.73791e-05
3.23292e-05
4.44014e-05
8.66569e-05
0.000169689
0.000288039
0.000430001
0.000587092
0.000754214
0.000928042
0.00110606
0.00128614
0.00146638
0.00164501
0.00182043
0.00199118
0.00215596
0.0023136
0.00246307
0.0026035
0.00273414
0.00285438
0.00296372
0.00306182
0.00314845
0.00322353
0.0032871
0.00333935
0.00338062
0.00341137
0.00343222
0.00344389
0.00344725
0.00344323
0.00343289
0.00341732
0.00339764
0.00337499
0.00335047
0.00332513
0.00329991
0.00327564
0.00325302
0.00323259
0.00321474
0.00319969
0.00318757
0.00317839
0.00317214
0.00316889
3.82563e-05
3.30961e-05
4.57876e-05
8.9771e-05
0.000175239
0.000295965
0.000440206
0.000599844
0.00077017
0.000948173
0.00113157
0.00131839
0.00150677
0.00169497
0.00188131
0.00206422
0.00224224
0.00241402
0.00257835
0.00273414
0.00288045
0.00301644
0.00314143
0.00325485
0.00335627
0.00344542
0.00352216
0.00358649
0.00363859
0.00367878
0.00370757
0.00372559
0.00373366
0.0037327
0.0037238
0.00370811
0.00368689
0.00366142
0.003633
0.00360287
0.00357222
0.00354215
0.00351357
0.00348728
0.00346386
0.00344377
0.00342728
0.00341457
0.00340579
0.00340117
3.90997e-05
3.38364e-05
4.7138e-05
9.27861e-05
0.000180521
0.000303351
0.000449498
0.000611184
0.000784064
0.000965446
0.0011533
0.00134584
0.00154132
0.00173806
0.00193435
0.00212856
0.0023191
0.00250449
0.00268334
0.00285438
0.00301644
0.0031685
0.00330966
0.00343913
0.00355629
0.00366064
0.00375183
0.00382967
0.00389414
0.00394541
0.00398379
0.00400981
0.00402418
0.00402778
0.00402166
0.00400701
0.00398518
0.00395755
0.00392562
0.00389085
0.00385467
0.00381844
0.00378339
0.00375057
0.00372086
0.00369496
0.00367337
0.00365651
0.00364473
0.00363848
3.99117e-05
3.4553e-05
4.84567e-05
9.57135e-05
0.000185565
0.000310267
0.000458001
0.0006213
0.000796161
0.000980198
0.00117165
0.00136893
0.00157047
0.00177467
0.00197987
0.0021844
0.00238662
0.00258492
0.00277777
0.00296372
0.00314143
0.00330966
0.0034673
0.00361337
0.00374701
0.0038675
0.00397428
0.00406695
0.00414525
0.00420916
0.0042588
0.00429452
0.00431689
0.00432668
0.00432488
0.00431265
0.00429136
0.00426251
0.00422773
0.00418868
0.00414706
0.00410451
0.00406257
0.00402264
0.00398593
0.00395345
0.00392602
0.00390434
0.00388905
0.00388088
4.06947e-05
3.52479e-05
4.97475e-05
9.8563e-05
0.0001904
0.000316772
0.000465824
0.000630364
0.000806703
0.000992747
0.00118699
0.0013881
0.00159467
0.00180524
0.00201825
0.00223205
0.00244497
0.00265533
0.00286148
0.00306182
0.00325485
0.00343913
0.00361337
0.00377635
0.00392701
0.00406441
0.00418775
0.00429639
0.00438987
0.0044679
0.00453041
0.00457754
0.00460966
0.00462739
0.00463157
0.00462333
0.00460399
0.0045751
0.00453838
0.00449569
0.00444896
0.00440011
0.00435105
0.00430354
0.00425918
0.00421938
0.00418536
0.00415818
0.00413884
0.00412844
4.14505e-05
3.59231e-05
5.10138e-05
0.000101343
0.00019505
0.000322924
0.000473064
0.000638531
0.000815914
0.00100339
0.00119971
0.00140376
0.00161438
0.00183025
0.00204994
0.00227188
0.00249442
0.00271584
0.00293442
0.00314845
0.00335627
0.00355629
0.00374701
0.00392701
0.00409502
0.00424987
0.00439054
0.00451613
0.00462596
0.00471948
0.00479639
0.00485657
0.00490019
0.00492764
0.00493962
0.00493709
0.0049213
0.00489379
0.00485634
0.00481091
0.00475966
0.0047048
0.00464858
0.00459317
0.00454064
0.00449286
0.00445151
0.00441813
0.00439418
0.00438125
4.21806e-05
3.65802e-05
5.22583e-05
0.000104063
0.000199538
0.00032877
0.000479811
0.000645941
0.000823996
0.0010124
0.00121014
0.00141634
0.00163006
0.00185018
0.00207542
0.00230433
0.00253532
0.00276669
0.00299669
0.00322353
0.00344542
0.00366064
0.0038675
0.00406441
0.00424987
0.0044225
0.00458104
0.00472437
0.00485154
0.00496175
0.00505444
0.00512924
0.00518605
0.00522503
0.00524663
0.00525166
0.00524121
0.00521673
0.00517998
0.00513301
0.00507813
0.00501782
0.00495466
0.00489127
0.00483021
0.00477387
0.00472453
0.00468429
0.00465519
0.00463939
4.28865e-05
3.72205e-05
5.34834e-05
0.000106727
0.000203885
0.000334355
0.000486142
0.000652718
0.000831135
0.00102003
0.00121862
0.00142625
0.00164219
0.00186554
0.00209522
0.0023299
0.00256812
0.00280824
0.0030485
0.0032871
0.00352216
0.00375183
0.00397428
0.00418775
0.00439054
0.00458104
0.00475778
0.0049194
0.00506469
0.00519261
0.00530231
0.00539315
0.00546475
0.00551699
0.00555008
0.00556456
0.00556134
0.00554171
0.00550735
0.00546031
0.005403
0.0053381
0.00526853
0.00519734
0.00512758
0.0050623
0.00500441
0.00495671
0.00492193
0.00490295
4.35693e-05
3.78453e-05
5.46912e-05
0.000109344
0.000208108
0.000339717
0.000492126
0.000658975
0.0008375
0.00102652
0.00122546
0.00143387
0.00165123
0.00187686
0.00210988
0.00234915
0.00259334
0.00284092
0.00309019
0.00333935
0.00358649
0.00382967
0.00406695
0.00429639
0.00451613
0.00472437
0.0049194
0.00509964
0.00526361
0.00541003
0.00553776
0.00564589
0.00573373
0.00580089
0.00584726
0.0058731
0.00587908
0.00586626
0.00583616
0.00579078
0.00573252
0.00566424
0.0055891
0.00551058
0.00543227
0.00535787
0.00529103
0.00523537
0.00519447
0.00517202
4.423e-05
3.84554e-05
5.58833e-05
0.000111917
0.000212222
0.00034489
0.000497827
0.000664814
0.000843243
0.00103209
0.00123096
0.00143957
0.00165762
0.00188466
0.00211998
0.00236267
0.00261157
0.00286528
0.00312222
0.00338062
0.00363859
0.00389414
0.00414525
0.00438987
0.00462596
0.00485154
0.00506469
0.00526361
0.00544659
0.00561207
0.00575864
0.0058851
0.00599048
0.00607404
0.00613538
0.00617444
0.00619159
0.00618761
0.00616381
0.00612201
0.00606458
0.00599443
0.00591493
0.0058299
0.0057435
0.00566008
0.00558414
0.00552019
0.0054728
0.00544664
4.48694e-05
3.90517e-05
5.70611e-05
0.000114451
0.000216241
0.000349905
0.000503299
0.000670323
0.0008485
0.00103694
0.00123537
0.00144371
0.00166182
0.00188945
0.00212611
0.0023711
0.00262346
0.00288196
0.00314515
0.00341137
0.00367878
0.00394541
0.00420916
0.0044679
0.00471948
0.00496175
0.00519261
0.00541003
0.00561207
0.00579691
0.00596289
0.0061085
0.00623247
0.00633375
0.00641161
0.00646565
0.00649588
0.0065028
0.0064874
0.0064513
0.00639671
0.00632649
0.00624418
0.00615387
0.00606019
0.00596821
0.00588327
0.00581092
0.00575684
0.00572682
4.54881e-05
3.96347e-05
5.82254e-05
0.000116949
0.000220177
0.000354788
0.000508588
0.000675581
0.000853393
0.00104124
0.00123896
0.00144662
0.00166424
0.00189174
0.00212886
0.0023751
0.00262971
0.00289165
0.00315967
0.00343222
0.00370757
0.00398379
0.0042588
0.00453041
0.00479639
0.00505444
0.00530231
0.00553776
0.00575864
0.00596289
0.00614856
0.00631389
0.00645728
0.00657738
0.00667311
0.00674372
0.00678887
0.00680868
0.00680383
0.00677563
0.00672607
0.00665789
0.00657464
0.00648063
0.00638092
0.00628122
0.00618776
0.00610719
0.0060464
0.00601246
4.60866e-05
4.02048e-05
5.93768e-05
0.000119414
0.000224039
0.00035956
0.000513736
0.000680656
0.00085803
0.00104515
0.00124195
0.0014486
0.00166526
0.00189203
0.00212882
0.00237534
0.00263106
0.00289515
0.00316654
0.00344389
0.00372559
0.00400981
0.00429452
0.00457754
0.00485657
0.00512924
0.00539315
0.00564589
0.0058851
0.0061085
0.00631389
0.00649922
0.0066626
0.00680237
0.00691709
0.00700567
0.0070674
0.00710201
0.00710982
0.00709176
0.00704955
0.00698571
0.00690372
0.00680798
0.00670389
0.00659774
0.00649664
0.00640836
0.00634111
0.00630333
4.66654e-05
4.07623e-05
6.05153e-05
0.000121847
0.000227833
0.000364238
0.000518775
0.000685606
0.000862501
0.00104881
0.00124454
0.00144993
0.00166527
0.00189078
0.00212656
0.0023725
0.00262826
0.00289326
0.00316664
0.00344725
0.00373366
0.00402418
0.00431689
0.00460966
0.00490019
0.00518605
0.00546475
0.00573373
0.00599048
0.00623247
0.00645728
0.0066626
0.00684625
0.00700625
0.00714084
0.00724857
0.00732833
0.0073795
0.00740196
0.00739627
0.00736379
0.00730676
0.00722845
0.0071333
0.00702689
0.00691603
0.00680863
0.00671356
0.00664041
0.00659903
4.72246e-05
4.13072e-05
6.16408e-05
0.000124249
0.000231565
0.000368836
0.000523734
0.000690477
0.000866884
0.00105234
0.0012469
0.00145085
0.00166459
0.00188843
0.00212262
0.00236722
0.00262209
0.00288685
0.00316088
0.00344323
0.0037327
0.00402778
0.00432668
0.00462739
0.00492764
0.00522503
0.00551699
0.00580089
0.00607404
0.00633375
0.00657738
0.00680237
0.00700625
0.00718675
0.00734179
0.00746956
0.00756859
0.00763785
0.00767681
0.00768563
0.00766525
0.00761757
0.00754559
0.00745362
0.00734736
0.00723396
0.00712207
0.00702159
0.00694343
0.00689893
4.77644e-05
4.18394e-05
6.27521e-05
0.000126618
0.000235236
0.000373364
0.000528631
0.000695307
0.000871241
0.00105584
0.00124918
0.0014516
0.00166352
0.00188538
0.00211752
0.00236014
0.00261329
0.00287679
0.00315022
0.00343289
0.0037238
0.00402166
0.00432488
0.00463157
0.00493962
0.00524663
0.00555008
0.00584726
0.00613538
0.00641161
0.00667311
0.00691709
0.00714084
0.00734179
0.00751755
0.00766597
0.00778522
0.00787386
0.00793098
0.00795629
0.0079503
0.00791452
0.00785162
0.00776568
0.00766235
0.00754905
0.00743494
0.00733089
0.00724904
0.00720209
4.82846e-05
4.23585e-05
6.38481e-05
0.000128952
0.000238847
0.000377825
0.00053348
0.000700122
0.000875622
0.00105939
0.00125151
0.00145234
0.00166234
0.00188199
0.00211173
0.00235187
0.00260261
0.00286395
0.00313568
0.00341732
0.00370811
0.00400701
0.00431265
0.00462333
0.00493709
0.00525166
0.00556456
0.0058731
0.00617444
0.00646565
0.00674372
0.00700567
0.00724857
0.00746956
0.00766597
0.00783532
0.00797542
0.00808448
0.00816115
0.00820473
0.00821529
0.00819392
0.00814288
0.00806595
0.00796864
0.00785843
0.00774488
0.00763957
0.00755572
0.00750726
4.8785e-05
4.28638e-05
6.49268e-05
0.000131248
0.000242395
0.00038222
0.000538287
0.00070494
0.000880059
0.00106305
0.00125399
0.00145323
0.00166126
0.00187857
0.00210567
0.00234295
0.00259073
0.00284917
0.00311822
0.00339764
0.00368689
0.00398518
0.00429136
0.00460399
0.0049213
0.00524121
0.00556134
0.00587908
0.00619159
0.00649588
0.00678887
0.0070674
0.00732833
0.00756859
0.00778522
0.00797542
0.0081367
0.00826686
0.0083642
0.00842759
0.00845667
0.00845207
0.00841565
0.00835081
0.00826279
0.00815899
0.00804916
0.00794538
0.00786164
0.00781286
4.92652e-05
4.33546e-05
6.59853e-05
0.0001335
0.000245874
0.000386545
0.000543052
0.000709765
0.000884571
0.00106686
0.00125669
0.0014544
0.00166046
0.00187539
0.0020997
0.00233387
0.00257829
0.00283324
0.00309883
0.00337499
0.00366142
0.00395755
0.00426251
0.0045751
0.00489379
0.00521673
0.00554171
0.00586626
0.00618761
0.0065028
0.00680868
0.00710201
0.0073795
0.00763785
0.00787386
0.00808448
0.00826686
0.0084185
0.00853731
0.00862176
0.00867108
0.00868546
0.00866631
0.00861662
0.00854127
0.00844744
0.00834484
0.00824575
0.00816463
0.00811694
4.97245e-05
4.38296e-05
6.70204e-05
0.000135702
0.000249274
0.00039079
0.000547765
0.000714595
0.000889163
0.00107084
0.00125966
0.00145592
0.00166008
0.00187265
0.00209414
0.00232507
0.00256586
0.0028169
0.0030784
0.00335047
0.003633
0.00392562
0.00422773
0.00453838
0.00485634
0.00517998
0.00550735
0.00583616
0.00616381
0.0064874
0.00680383
0.00710982
0.00740196
0.00767681
0.00793098
0.00816115
0.0083642
0.00853731
0.00867804
0.0087845
0.0088555
0.00889082
0.00889143
0.00885987
0.00880061
0.00872045
0.00862884
0.00853794
0.00846223
0.00841728
5.01621e-05
4.42874e-05
6.80277e-05
0.000137845
0.000252584
0.00039494
0.00055241
0.000719412
0.000893822
0.00107499
0.0012629
0.00145784
0.00166021
0.00187051
0.00208923
0.00231688
0.00255393
0.00280079
0.00305779
0.00332513
0.00360287
0.00389085
0.00418868
0.00449569
0.00481091
0.00513301
0.00546031
0.00579078
0.00612201
0.0064513
0.00677563
0.00709176
0.00739627
0.00768563
0.00795629
0.00820473
0.00842759
0.00862176
0.0087845
0.00891355
0.00900737
0.00906533
0.00908797
0.00907739
0.00903756
0.00897482
0.00889811
0.00881913
0.0087519
0.00871148
5.05768e-05
4.47262e-05
6.9002e-05
0.000139918
0.000255787
0.000398975
0.000556964
0.00072419
0.000898524
0.00107929
0.00126642
0.00146017
0.00166091
0.00186907
0.00208514
0.00230958
0.00254288
0.00278546
0.00303771
0.00329991
0.00357222
0.00385467
0.00414706
0.00444896
0.00475966
0.00507813
0.005403
0.00573252
0.00606458
0.00639671
0.00672607
0.00704955
0.00736379
0.00766525
0.0079503
0.00821529
0.00845667
0.00867108
0.0088555
0.00900737
0.00912481
0.0092068
0.00925349
0.00926651
0.00924934
0.00920769
0.00914983
0.0090866
0.00903104
0.00899708
5.09671e-05
4.51436e-05
6.99371e-05
0.000141907
0.000258864
0.000402869
0.000561393
0.000728892
0.000903225
0.00108369
0.00127018
0.0014629
0.00166217
0.00186838
0.00208196
0.00230336
0.00253302
0.00277137
0.0030188
0.00327564
0.00354215
0.00381844
0.00410451
0.00440011
0.0047048
0.00501782
0.0053381
0.00566424
0.00599443
0.00632649
0.00665789
0.00698571
0.00730676
0.00761757
0.00791452
0.00819392
0.00845207
0.00868546
0.00889082
0.00906533
0.0092068
0.00931387
0.00938632
0.00942531
0.00943379
0.00941678
0.00938162
0.00933796
0.00929729
0.00927172
5.13311e-05
4.55369e-05
7.08253e-05
0.000143797
0.00026179
0.000406587
0.000565656
0.000733467
0.00090787
0.00108813
0.00127411
0.00146596
0.00166395
0.00186842
0.00207974
0.00229831
0.00252454
0.00275882
0.00300153
0.00325302
0.00351357
0.00378339
0.00406257
0.00435105
0.00464858
0.00495466
0.00526853
0.0055891
0.00591493
0.00624418
0.00657464
0.00690372
0.00722845
0.00754559
0.00785162
0.00814288
0.00841565
0.00866631
0.00889143
0.00908797
0.00925349
0.00938632
0.00948587
0.00955287
0.00958969
0.00960056
0.00959173
0.00957126
0.00954857
0.00953327
5.16665e-05
4.59027e-05
7.16577e-05
0.000145568
0.000264534
0.000410091
0.000569702
0.000737853
0.000912384
0.00109253
0.00127813
0.00146927
0.00166617
0.00186912
0.00207844
0.00229447
0.00251755
0.00274804
0.00298628
0.00323259
0.00348728
0.00375057
0.00402264
0.00430354
0.00459317
0.00489127
0.00519734
0.00551058
0.0058299
0.00615387
0.00648063
0.00680798
0.0071333
0.00745362
0.00776568
0.00806595
0.00835081
0.00861662
0.00885987
0.00907739
0.00926651
0.00942531
0.00955287
0.00964947
0.00971689
0.00975848
0.00977917
0.00978514
0.00978324
0.00977991
5.19704e-05
4.62371e-05
7.24237e-05
0.000147198
0.000267063
0.000413331
0.000573468
0.000741973
0.000916677
0.00109679
0.00128211
0.00147269
0.00166871
0.00187038
0.00207797
0.00229176
0.00251204
0.0027391
0.00297324
0.00321474
0.00346386
0.00372086
0.00398593
0.00425918
0.00454064
0.00483021
0.00512758
0.00543227
0.0057435
0.00606019
0.00638092
0.00670389
0.00702689
0.00734736
0.00766235
0.00796864
0.00826279
0.00854127
0.00880061
0.00903756
0.00924934
0.00943379
0.00958969
0.00971689
0.00981652
0.00989098
0.00994371
0.00997874
0.00999986
0.0100099
5.22392e-05
4.65352e-05
7.31106e-05
0.00014866
0.000269332
0.000416251
0.000576881
0.000745736
0.000920641
0.00110078
0.00128593
0.00147609
0.00167139
0.00187201
0.00207816
0.00229006
0.00250793
0.002732
0.00296251
0.00319969
0.00344377
0.00369496
0.00395345
0.00421938
0.00449286
0.00477387
0.0050623
0.00535787
0.00566008
0.00596821
0.00628122
0.00659774
0.00691603
0.00723396
0.00754905
0.00785843
0.00815899
0.00844744
0.00872045
0.00897482
0.00920769
0.00941678
0.00960056
0.00975848
0.00989098
0.00999942
0.0100856
0.0101513
0.0101968
0.010221
5.24684e-05
4.67912e-05
7.37036e-05
0.000149923
0.000271293
0.000418781
0.000579854
0.000749037
0.000924148
0.00110436
0.00128941
0.00147927
0.00167403
0.00187383
0.00207882
0.00228918
0.00250505
0.00272663
0.00295408
0.00318757
0.00342728
0.00367337
0.00392602
0.00418536
0.00445151
0.00472453
0.00500441
0.00529103
0.00558414
0.00588327
0.00618776
0.00649664
0.00680863
0.00712207
0.00743494
0.00774488
0.00804916
0.00834484
0.00862884
0.00889811
0.00914983
0.00938162
0.00959173
0.00977917
0.00994371
0.0100856
0.0102051
0.0103013
0.0103713
0.0104097
5.26526e-05
4.69981e-05
7.41848e-05
0.000150947
0.000272886
0.000420841
0.000582285
0.000751752
0.000927054
0.00110735
0.00129235
0.00148201
0.00167639
0.00187558
0.0020797
0.00228887
0.0025032
0.00272282
0.00294784
0.00317839
0.00341457
0.00365651
0.00390434
0.00415818
0.00441813
0.00468429
0.00495671
0.00523537
0.00552019
0.00581092
0.00610719
0.00640836
0.00671356
0.00702159
0.00733089
0.00763957
0.00794538
0.00824575
0.00853794
0.00881913
0.0090866
0.00933796
0.00957126
0.00978514
0.00997874
0.0101513
0.0103013
0.0104256
0.0105181
0.0105697
5.27849e-05
4.71473e-05
7.4533e-05
0.000151688
0.000274039
0.000422335
0.000584054
0.000753735
0.000929189
0.00110956
0.00129455
0.0014841
0.00167823
0.00187701
0.00208053
0.00228889
0.00250215
0.00272039
0.0029437
0.00317214
0.00340579
0.00364473
0.00388905
0.00413884
0.00439418
0.00465519
0.00492193
0.00519447
0.0054728
0.00575684
0.0060464
0.00634111
0.00664041
0.00694343
0.00724904
0.00755572
0.00786164
0.00816463
0.00846223
0.0087519
0.00903104
0.00929729
0.00954857
0.00978324
0.00999986
0.0101968
0.0103713
0.0105181
0.0106286
0.0106907
5.28566e-05
4.72284e-05
7.47226e-05
0.000152092
0.000274667
0.000423151
0.000585021
0.000754822
0.000930363
0.00111078
0.00129578
0.00148527
0.00167927
0.00187784
0.00208106
0.00228898
0.00250167
0.00271919
0.00294158
0.00316889
0.00340117
0.00363848
0.00388088
0.00412844
0.00438125
0.00463939
0.00490295
0.00517202
0.00544664
0.00572682
0.00601246
0.00630333
0.00659903
0.00689893
0.00720209
0.00750726
0.00781286
0.00811694
0.00841728
0.00871148
0.00899708
0.00927172
0.00953327
0.00977991
0.0100099
0.010221
0.0104097
0.0105697
0.0106907
0.010759
)
;

boundaryField
{
    bottomWall
    {
        type            nutkWallFunction;
        Cmu             0.09;
        kappa           0.41;
        E               9.8;
        value           uniform 0;
    }
    leftWall
    {
        type            nutkWallFunction;
        Cmu             0.09;
        kappa           0.41;
        E               9.8;
        value           uniform 0;
    }
    topSym
    {
        type            symmetryPlane;
    }
    rightSym
    {
        type            symmetryPlane;
    }
    inlet
    {
        type            cyclic;
    }
    outlet
    {
        type            cyclic;
    }
}


// ************************************************************************* //
