/*--------------------------------*- C++ -*----------------------------------*\
| =========                 |                                                 |
| \\      /  F ield         | OpenFOAM: The Open Source CFD Toolbox           |
|  \\    /   O peration     | Version:  v1912                                 |
|   \\  /    A nd           | Website:  www.openfoam.com                      |
|    \\/     M anipulation  |                                                 |
\*---------------------------------------------------------------------------*/
FoamFile
{
    version     2.0;
    format      ascii;
    class       volScalarField;
    location    "1";
    object      timeScale;
}
// * * * * * * * * * * * * * * * * * * * * * * * * * * * * * * * * * * * * * //

dimensions      [0 0 1 0 0 0 0];


internalField   nonuniform List<scalar> 
2500
(
0.110684
0.106316
0.0981439
0.0886608
0.0797094
0.0720185
0.065663
0.0604735
0.0562313
0.0527378
0.0498304
0.0473819
0.0452945
0.0434935
0.0419218
0.040536
0.0393027
0.0381961
0.0371959
0.0362862
0.0354541
0.0346894
0.0339836
0.0333297
0.032722
0.0321556
0.0316263
0.0311307
0.0306657
0.0302287
0.0298176
0.0294303
0.0290653
0.0287211
0.0283966
0.0280906
0.0278025
0.0275315
0.0272772
0.0270392
0.0268175
0.0266121
0.0264234
0.0262519
0.0260984
0.0259641
0.0258507
0.0257602
0.0256957
0.0256608
0.106316
0.120589
0.122277
0.115255
0.105908
0.0972522
0.0899646
0.0839592
0.0790026
0.074876
0.0714031
0.0684471
0.0659027
0.0636886
0.0617424
0.0600155
0.0584705
0.0570778
0.0558143
0.0546613
0.0536041
0.0526303
0.0517301
0.0508952
0.0501186
0.0493946
0.0487181
0.0480849
0.0474913
0.0469342
0.0464108
0.0459188
0.045456
0.0450207
0.0446113
0.0442264
0.0438651
0.0435263
0.0432094
0.0429138
0.0426393
0.0423858
0.0421536
0.0419431
0.0417553
0.0415914
0.0414531
0.0413432
0.0412647
0.0412224
0.0981439
0.122277
0.14176
0.148624
0.145516
0.138881
0.13207
0.126016
0.120803
0.116318
0.112436
0.109046
0.106062
0.103415
0.101048
0.0989161
0.0969832
0.0952206
0.0936048
0.092117
0.0907417
0.0894664
0.0882805
0.0871753
0.0861432
0.085178
0.0842743
0.0834274
0.0826331
0.0818881
0.081189
0.0805331
0.0799179
0.0793411
0.078801
0.0782955
0.0778233
0.077383
0.0769734
0.0765937
0.0762432
0.0759214
0.0756282
0.075364
0.0751294
0.0749256
0.0747545
0.0746188
0.0745223
0.0744703
0.0886608
0.115255
0.148624
0.179726
0.198231
0.204594
0.204463
0.201686
0.197971
0.194
0.190053
0.186251
0.182643
0.179242
0.176044
0.173039
0.17021
0.167545
0.16503
0.162653
0.160404
0.158275
0.156257
0.154344
0.15253
0.15081
0.149179
0.147634
0.14617
0.144784
0.143473
0.142234
0.141065
0.139962
0.138925
0.13795
0.137036
0.13618
0.135383
0.134642
0.133957
0.133327
0.132753
0.132235
0.131774
0.131374
0.131038
0.130772
0.130582
0.13048
0.0797094
0.105908
0.145516
0.198231
0.249674
0.284985
0.303326
0.310613
0.311813
0.309798
0.306102
0.301548
0.296589
0.29148
0.286363
0.28132
0.276396
0.271617
0.266998
0.262546
0.258264
0.254155
0.250216
0.246447
0.242844
0.239405
0.236126
0.233005
0.230037
0.227219
0.224547
0.222018
0.219628
0.217374
0.215251
0.213257
0.211389
0.209643
0.208016
0.206507
0.205115
0.203837
0.202674
0.201627
0.200699
0.199894
0.19922
0.198686
0.198306
0.198102
0.0720185
0.0972522
0.138881
0.204594
0.284985
0.354823
0.40052
0.425181
0.436201
0.439186
0.437535
0.433202
0.42732
0.420558
0.413321
0.405862
0.398342
0.390866
0.383506
0.37631
0.36931
0.36253
0.355985
0.349686
0.343638
0.337847
0.332311
0.327033
0.322009
0.317236
0.312712
0.308432
0.304392
0.300586
0.297009
0.293656
0.290521
0.2876
0.284887
0.282378
0.28007
0.277959
0.276045
0.274328
0.272811
0.2715
0.270404
0.269538
0.268925
0.268595
0.065663
0.0899646
0.13207
0.204463
0.303326
0.40052
0.473007
0.518432
0.543816
0.55617
0.560327
0.559316
0.555005
0.548569
0.540762
0.532083
0.522872
0.513368
0.503741
0.494116
0.484587
0.475222
0.466076
0.457186
0.448584
0.44029
0.432322
0.424689
0.4174
0.410458
0.403864
0.397619
0.391719
0.38616
0.380939
0.376048
0.371482
0.367233
0.363296
0.359663
0.356329
0.353289
0.35054
0.348082
0.345916
0.344049
0.342493
0.341266
0.340399
0.339933
0.0604735
0.0839592
0.126016
0.201686
0.310613
0.425181
0.518432
0.583524
0.625262
0.650313
0.663944
0.669782
0.670243
0.666944
0.660989
0.653148
0.643976
0.63388
0.623166
0.61207
0.600773
0.589421
0.578127
0.566982
0.556057
0.545411
0.535088
0.525125
0.515548
0.506379
0.497632
0.489317
0.481441
0.474005
0.46701
0.460453
0.45433
0.448635
0.44336
0.438499
0.434044
0.42999
0.426331
0.423067
0.420198
0.41773
0.415677
0.414063
0.412922
0.412311
0.0562313
0.0790026
0.120803
0.197971
0.311813
0.436201
0.543816
0.625262
0.682825
0.721825
0.747119
0.762393
0.770296
0.772719
0.771024
0.766211
0.759032
0.750062
0.739751
0.728459
0.716472
0.704029
0.69132
0.678507
0.66572
0.65307
0.640646
0.628523
0.61676
0.605408
0.594505
0.584081
0.574159
0.564757
0.555884
0.547547
0.539748
0.532486
0.525757
0.519556
0.513876
0.508711
0.504056
0.499909
0.49627
0.493145
0.490551
0.488514
0.487076
0.486307
0.0527378
0.074876
0.116318
0.194
0.309798
0.439186
0.55617
0.650313
0.721825
0.774418
0.812086
0.838174
0.855275
0.865354
0.869899
0.870056
0.866716
0.860588
0.852246
0.842161
0.830726
0.818269
0.80507
0.791365
0.777358
0.76322
0.749098
0.735118
0.721386
0.707992
0.695008
0.682498
0.670511
0.659086
0.648253
0.638035
0.628446
0.619496
0.611188
0.603524
0.5965
0.590113
0.584358
0.579235
0.574744
0.570894
0.5677
0.565196
0.563431
0.562486
0.0498304
0.0714031
0.112436
0.190053
0.306102
0.437535
0.560327
0.663944
0.747119
0.812086
0.861836
0.899151
0.926358
0.945329
0.957554
0.964224
0.9663
0.964571
0.959695
0.952227
0.942643
0.931353
0.918714
0.905039
0.890602
0.875643
0.860372
0.844974
0.829611
0.814422
0.799526
0.785029
0.771015
0.757558
0.744716
0.732537
0.721056
0.710299
0.700286
0.691027
0.682529
0.674793
0.667821
0.661613
0.656173
0.651512
0.64765
0.644623
0.642492
0.641352
0.0473819
0.0684471
0.109046
0.186251
0.301548
0.433202
0.559316
0.669782
0.762393
0.838174
0.899151
0.947459
0.985039
1.01355
1.03438
1.04869
1.05742
1.06141
1.06134
1.05781
1.05136
1.04245
1.03149
1.01886
1.00491
0.989927
0.974192
0.95795
0.941421
0.924803
0.908269
0.891974
0.876051
0.860615
0.845763
0.831579
0.818126
0.805459
0.793618
0.782631
0.77252
0.763299
0.754976
0.74756
0.74106
0.73549
0.730876
0.727262
0.724718
0.723358
0.0452945
0.0659027
0.106062
0.182643
0.296589
0.42732
0.555005
0.670243
0.770296
0.855275
0.926358
0.985039
1.03282
1.07107
1.101
1.12368
1.14
1.15075
1.15661
1.15821
1.15608
1.15071
1.14258
1.13207
1.1196
1.10549
1.0901
1.07371
1.05661
1.03906
1.02128
1.00348
0.985858
0.968576
0.95178
0.935597
0.920132
0.905476
0.891699
0.878857
0.866995
0.856143
0.846327
0.837566
0.829878
0.823287
0.817826
0.813548
0.810538
0.808928
0.0434935
0.0636886
0.103415
0.179242
0.29148
0.420558
0.548569
0.666944
0.772719
0.865354
0.945329
1.01355
1.07107
1.11893
1.15814
1.1896
1.21412
1.23241
1.24512
1.25283
1.25609
1.25537
1.25115
1.24385
1.23389
1.22164
1.20749
1.19177
1.17482
1.15694
1.13842
1.11954
1.10054
1.08164
1.06305
1.04494
1.02748
1.01079
0.994999
0.980191
0.966445
0.953819
0.942361
0.932107
0.923093
0.915355
0.908937
0.903908
0.900369
0.898476
0.0419218
0.0617424
0.101048
0.176044
0.286363
0.413321
0.540762
0.660989
0.771024
0.869899
0.957554
1.03438
1.101
1.15814
1.20655
1.24695
1.28002
1.30639
1.32663
1.34127
1.35082
1.35573
1.35644
1.35339
1.34697
1.33759
1.32564
1.31149
1.29551
1.27804
1.25943
1.24
1.22006
1.19988
1.17974
1.15987
1.14049
1.12179
1.10395
1.08709
1.07135
1.05681
1.04356
1.03166
1.02117
1.01215
1.00465
0.998772
0.994632
0.992418
0.040536
0.0600155
0.0989161
0.173039
0.28132
0.405862
0.532083
0.653148
0.766211
0.870056
0.964224
1.04869
1.12368
1.1896
1.24695
1.29625
1.33803
1.3728
1.40105
1.42325
1.43982
1.45119
1.45775
1.45991
1.45804
1.45253
1.44378
1.43216
1.41805
1.40183
1.38388
1.36457
1.34424
1.32325
1.30192
1.28055
1.25943
1.23881
1.21893
1.19999
1.18216
1.16559
1.1504
1.1367
1.12458
1.11413
1.10542
1.09858
1.09376
1.09118
0.0393027
0.0584705
0.0969832
0.17021
0.276396
0.398342
0.522872
0.643976
0.759032
0.866716
0.9663
1.05742
1.14
1.21412
1.28002
1.33803
1.38851
1.43184
1.46842
1.49861
1.52279
1.5413
1.5545
1.56272
1.56633
1.56567
1.56109
1.55298
1.54171
1.52765
1.51122
1.49279
1.47278
1.45156
1.42952
1.40703
1.38445
1.36209
1.34028
1.31927
1.29931
1.28062
1.26337
1.24773
1.23382
1.22178
1.21173
1.20381
1.19822
1.19523
0.0381961
0.0570778
0.0952206
0.167545
0.271617
0.390866
0.513368
0.63388
0.750062
0.860588
0.964571
1.06141
1.15075
1.23241
1.30639
1.3728
1.43184
1.48376
1.52882
1.56731
1.59951
1.62571
1.64619
1.66124
1.67115
1.67622
1.67678
1.67315
1.6657
1.65478
1.64079
1.62413
1.60522
1.58448
1.56236
1.53926
1.51561
1.49182
1.46825
1.44528
1.42322
1.40237
1.38296
1.36524
1.3494
1.33562
1.32407
1.31495
1.30849
1.30503
0.0371959
0.0558143
0.0936048
0.16503
0.266998
0.383506
0.503741
0.623166
0.739751
0.852246
0.959695
1.06134
1.15661
1.24512
1.32663
1.40105
1.46842
1.52882
1.5824
1.62936
1.66988
1.70417
1.73246
1.75495
1.77189
1.78351
1.79008
1.79187
1.78921
1.78241
1.77184
1.7579
1.74101
1.72159
1.70011
1.67705
1.65287
1.62805
1.60306
1.57832
1.55426
1.53126
1.50966
1.48976
1.47185
1.45618
1.44298
1.43253
1.42511
1.42112
0.0362862
0.0546613
0.092117
0.162653
0.262546
0.37631
0.494116
0.61207
0.728459
0.842161
0.952227
1.05781
1.15821
1.25283
1.34127
1.42325
1.49861
1.56731
1.62936
1.68484
1.73385
1.77653
1.81302
1.84346
1.86804
1.88691
1.90029
1.90838
1.91143
1.90974
1.9036
1.89338
1.87947
1.8623
1.84234
1.82009
1.79605
1.77077
1.74478
1.71861
1.69276
1.66771
1.64392
1.6218
1.60172
1.58403
1.56905
1.55713
1.54864
1.54408
0.0354541
0.0536041
0.0907417
0.160404
0.258264
0.36931
0.484587
0.600773
0.716472
0.830726
0.942643
1.05136
1.15608
1.25609
1.35082
1.43982
1.52279
1.59951
1.66988
1.73385
1.79144
1.84269
1.88767
1.92647
1.95917
1.9859
2.00678
2.02195
2.03161
2.03595
2.03523
2.02976
2.01987
2.00596
1.98849
1.96794
1.94486
1.91983
1.89343
1.86627
1.83896
1.81209
1.78622
1.76189
1.73959
1.71978
1.70289
1.68938
1.67973
1.67452
0.0346894
0.0526303
0.0894664
0.158275
0.254155
0.36253
0.475222
0.589421
0.704029
0.818269
0.931353
1.04245
1.15071
1.25537
1.35573
1.45119
1.5413
1.62571
1.70417
1.77653
1.84269
1.90261
1.95629
2.00372
2.04496
2.08003
2.10901
2.13197
2.14901
2.16027
2.16593
2.16621
2.16139
2.15181
2.13787
2.12005
2.09887
2.07493
2.04886
2.02134
1.99305
1.9647
1.93698
1.91054
1.88603
1.86405
1.84516
1.82996
1.81904
1.81314
0.0339836
0.0517301
0.0882805
0.156257
0.250216
0.355985
0.466076
0.578127
0.69132
0.80507
0.918714
1.03149
1.14258
1.25115
1.35644
1.45775
1.5545
1.64619
1.73246
1.81302
1.88767
1.95629
2.01877
2.07506
2.12513
2.16895
2.20652
2.23786
2.26299
2.28197
2.2949
2.30191
2.3032
2.29904
2.28975
2.27575
2.25754
2.23569
2.21084
2.18373
2.15511
2.12578
2.09656
2.06824
2.04164
2.0175
1.99657
1.97959
1.96734
1.96069
0.0333297
0.0508952
0.0871753
0.154344
0.246447
0.349686
0.457186
0.566982
0.678507
0.791365
0.905039
1.01886
1.13207
1.24385
1.35339
1.45991
1.56272
1.66124
1.75495
1.84346
1.92647
2.00372
2.07506
2.14034
2.19946
2.25235
2.29893
2.33915
2.37298
2.40039
2.4214
2.43606
2.44448
2.44681
2.4433
2.43429
2.4202
2.40155
2.37899
2.35324
2.32511
2.29548
2.26527
2.23546
2.20698
2.1808
2.15786
2.13908
2.12545
2.11802
0.032722
0.0501186
0.0861432
0.15253
0.242844
0.343638
0.448584
0.556057
0.66572
0.777358
0.890602
1.00491
1.1196
1.23389
1.34697
1.45804
1.56633
1.67115
1.77189
1.86804
1.95917
2.04496
2.12513
2.19946
2.26779
2.32998
2.38589
2.43542
2.47846
2.51493
2.54476
2.56792
2.5844
2.59428
2.59768
2.59485
2.5861
2.5719
2.55281
2.52953
2.50289
2.47383
2.44336
2.41258
2.38263
2.35465
2.32981
2.30928
2.29426
2.28603
0.0321556
0.0493946
0.085178
0.15081
0.239405
0.337847
0.44029
0.545411
0.65307
0.76322
0.875643
0.989927
1.10549
1.22164
1.33759
1.45253
1.56567
1.67622
1.78351
1.88691
1.9859
2.08003
2.16895
2.25235
2.32998
2.40164
2.46714
2.52632
2.57902
2.62508
2.66438
2.69678
2.72221
2.74062
2.75204
2.75658
2.75444
2.74598
2.73166
2.71213
2.68818
2.66075
2.63094
2.59995
2.56909
2.53972
2.51324
2.49109
2.47474
2.46574
0.0316263
0.0487181
0.0842743
0.149179
0.236126
0.332311
0.432322
0.535088
0.640646
0.749098
0.860372
0.974192
1.0901
1.20749
1.32564
1.44378
1.56109
1.67678
1.79008
1.90029
2.00678
2.10901
2.20652
2.29893
2.38589
2.46714
2.54244
2.61155
2.67426
2.73038
2.77969
2.82202
2.85719
2.88506
2.90554
2.91861
2.92436
2.92298
2.91484
2.90046
2.88055
2.85604
2.82803
2.79782
2.76684
2.73667
2.70898
2.68548
2.66795
2.65823
0.0311307
0.0480849
0.0834274
0.147634
0.233005
0.327033
0.424689
0.525125
0.628523
0.735118
0.844974
0.95795
1.07371
1.19177
1.31149
1.43216
1.55298
1.67315
1.79187
1.90838
2.02195
2.13197
2.23786
2.33915
2.43542
2.52632
2.61155
2.69081
2.76384
2.8304
2.89023
2.94308
2.9887
3.02687
3.05738
3.08011
3.09498
3.10206
3.10155
3.09382
3.07948
3.05936
3.03453
3.00631
2.97627
2.94614
2.91786
2.89343
2.87499
2.86468
0.0306657
0.0474913
0.0826331
0.14617
0.230037
0.322009
0.4174
0.515548
0.61676
0.721386
0.829611
0.941421
1.05661
1.17482
1.29551
1.41805
1.54171
1.6657
1.78921
1.91143
2.03161
2.14901
2.26299
2.37298
2.47846
2.57902
2.67426
2.76384
2.84745
2.92479
2.99556
3.05944
3.11615
3.16538
3.20683
3.24026
3.26546
3.28234
3.29094
3.29146
3.28433
3.27025
3.2502
3.22547
3.19767
3.1687
3.1407
3.11599
3.09704
3.08634
0.0302287
0.0469342
0.0818881
0.144784
0.227219
0.317236
0.410458
0.506379
0.605408
0.707992
0.814422
0.924803
1.03906
1.15694
1.27804
1.40183
1.52765
1.65478
1.78241
1.90974
2.03595
2.16027
2.28197
2.40039
2.51493
2.62508
2.73038
2.8304
2.92479
3.01319
3.09526
3.17065
3.23901
3.29999
3.3532
3.3983
3.43497
3.46297
3.48215
3.49254
3.49436
3.48813
3.47467
3.45519
3.43126
3.40485
3.37829
3.35418
3.33533
3.32455
0.0298176
0.0464108
0.081189
0.143473
0.224547
0.312712
0.403864
0.497632
0.594505
0.695008
0.799526
0.908269
1.02128
1.13842
1.25943
1.38388
1.51122
1.64079
1.77184
1.9036
2.03523
2.16593
2.2949
2.4214
2.54476
2.66438
2.77969
2.89023
2.99556
3.09526
3.18896
3.27627
3.3568
3.43013
3.49586
3.55354
3.60276
3.64312
3.67434
3.69622
3.7088
3.71235
3.70749
3.69525
3.6771
3.655
3.63138
3.60905
3.59111
3.5807
0.0294303
0.0459188
0.0805331
0.142234
0.222018
0.308432
0.397619
0.489317
0.584081
0.682498
0.785029
0.891974
1.00348
1.11954
1.24
1.36457
1.49279
1.62413
1.7579
1.89338
2.02976
2.16621
2.30191
2.43606
2.56792
2.69678
2.82202
2.94308
3.05944
3.17065
3.27627
3.37587
3.46903
3.55531
3.63424
3.70534
3.7681
3.82203
3.86667
3.90168
3.92684
3.94219
3.94809
3.94532
3.93516
3.91946
3.90062
3.8816
3.86566
3.85619
0.0290653
0.045456
0.0799179
0.141065
0.219628
0.304392
0.391719
0.481441
0.574159
0.670511
0.771015
0.876051
0.985858
1.10054
1.22006
1.34424
1.47278
1.60522
1.74101
1.87947
2.01987
2.16139
2.3032
2.44448
2.5844
2.72221
2.85719
2.9887
3.11615
3.23901
3.3568
3.46903
3.57526
3.67502
3.76781
3.8531
3.93035
3.99897
4.05839
4.1081
4.14767
4.1769
4.19584
4.20498
4.2053
4.19843
4.18661
4.17276
4.16023
4.15247
0.0287211
0.0450207
0.0793411
0.139962
0.217374
0.300586
0.38616
0.474005
0.564757
0.659086
0.757558
0.860615
0.968576
1.08164
1.19988
1.32325
1.45156
1.58448
1.72159
1.8623
2.00596
2.15181
2.29904
2.44681
2.59428
2.74062
2.88506
3.02687
3.16538
3.29999
3.43013
3.55531
3.67502
3.78876
3.89603
3.99627
4.08891
4.1733
4.2488
4.31474
4.37055
4.41574
4.4501
4.47375
4.4873
4.49201
4.48983
4.48343
4.47602
4.47094
0.0283966
0.0446113
0.078801
0.138925
0.215251
0.297009
0.380939
0.46701
0.555884
0.648253
0.744716
0.845763
0.95178
1.06305
1.17974
1.30192
1.42952
1.56236
1.70011
1.84234
1.98849
2.13787
2.28975
2.4433
2.59768
2.75204
2.90554
3.05738
3.20683
3.3532
3.49586
3.63424
3.76781
3.89603
4.01838
4.1343
4.24319
4.34441
4.43723
4.52093
4.59475
4.65802
4.71022
4.75111
4.78085
4.80022
4.81067
4.8144
4.81418
4.81295
0.0280906
0.0442264
0.0782955
0.13795
0.213257
0.293656
0.376048
0.460453
0.547547
0.638035
0.732537
0.831579
0.935597
1.04494
1.15987
1.28055
1.40703
1.53926
1.67705
1.82009
1.96794
2.12005
2.27575
2.43429
2.59485
2.75658
2.91861
3.08011
3.24026
3.3983
3.55354
3.70534
3.8531
3.99627
4.1343
4.26662
4.39264
4.51171
4.6231
4.72602
4.81964
4.90309
4.97561
5.03655
5.08563
5.123
5.14942
5.16635
5.17577
5.17979
0.0278025
0.0438651
0.0778233
0.137036
0.211389
0.290521
0.371482
0.45433
0.539748
0.628446
0.721056
0.818126
0.920132
1.02748
1.14049
1.25943
1.38445
1.51561
1.65287
1.79605
1.94486
2.09887
2.25754
2.4202
2.5861
2.75444
2.92436
3.09498
3.26546
3.43497
3.60276
3.7681
3.93035
4.08891
4.24319
4.39264
4.53667
4.67464
4.80583
4.92947
5.04464
5.15039
5.24571
5.32963
5.40133
5.46027
5.50634
5.53989
5.56173
5.57264
0.0275315
0.0435263
0.077383
0.13618
0.209643
0.2876
0.367233
0.448635
0.532486
0.619496
0.710299
0.805459
0.905476
1.01079
1.12179
1.23881
1.36209
1.49182
1.62805
1.77077
1.91983
2.07493
2.23569
2.40155
2.5719
2.74598
2.92298
3.10206
3.28234
3.46297
3.64312
3.82203
3.99897
4.1733
4.34441
4.51171
4.67464
4.83257
4.98485
5.1307
5.26923
5.39941
5.52007
5.62994
5.72767
5.81196
5.8816
5.93556
5.97292
5.99256
0.0272772
0.0432094
0.0769734
0.135383
0.208016
0.284887
0.363296
0.44336
0.525757
0.611188
0.700286
0.793618
0.891699
0.994999
1.10395
1.21893
1.34028
1.46825
1.60306
1.74478
1.89343
2.04886
2.21084
2.37899
2.55281
2.73166
2.91484
3.10155
3.29094
3.48215
3.67434
3.86667
4.05839
4.2488
4.43723
4.6231
4.80583
4.98485
5.15953
5.32916
5.4929
5.64969
5.79828
5.93714
6.06442
6.17799
6.27538
6.35379
6.41005
6.44044
0.0270392
0.0429138
0.0765937
0.134642
0.206507
0.282378
0.359663
0.438499
0.519556
0.603524
0.691027
0.782631
0.878857
0.980191
1.08709
1.19999
1.31927
1.44528
1.57832
1.71861
1.86627
2.02134
2.18373
2.35324
2.52953
2.71213
2.90046
3.09382
3.29146
3.49254
3.69622
3.90168
4.1081
4.31474
4.52093
4.72602
4.92947
5.1307
5.32916
5.52422
5.71508
5.90076
6.07996
6.25093
6.41139
6.5583
6.68778
6.79492
6.87369
6.91701
0.0268175
0.0426393
0.0762432
0.133957
0.205115
0.28007
0.356329
0.434044
0.513876
0.5965
0.682529
0.77252
0.866995
0.966445
1.07135
1.18216
1.29931
1.42322
1.55426
1.69276
1.83896
1.99305
2.15511
2.32511
2.50289
2.68818
2.88055
3.07948
3.28433
3.49436
3.7088
3.92684
4.14767
4.37055
4.59475
4.81964
5.04464
5.26923
5.4929
5.71508
5.9351
6.15205
6.36464
6.57096
6.76831
6.95275
7.11881
7.25909
7.36412
7.42266
0.0266121
0.0423858
0.0759214
0.133327
0.203837
0.277959
0.353289
0.42999
0.508711
0.590113
0.674793
0.763299
0.856143
0.953819
1.05681
1.16559
1.28062
1.40237
1.53126
1.66771
1.81209
1.9647
2.12578
2.29548
2.47383
2.66075
2.85604
3.05936
3.27025
3.48813
3.71235
3.94219
4.1769
4.41574
4.65802
4.90309
5.15039
5.39941
5.64969
5.90076
6.15205
6.40275
6.65161
6.89664
7.13468
7.36091
7.56809
7.746
7.88111
7.95719
0.0264234
0.0421536
0.0756282
0.132753
0.202674
0.276045
0.35054
0.426331
0.504056
0.584358
0.667821
0.754976
0.846327
0.942361
1.04356
1.1504
1.26337
1.38296
1.50966
1.64392
1.78622
1.93698
2.09656
2.26527
2.44336
2.63094
2.82803
3.03453
3.2502
3.47467
3.70749
3.94809
4.19584
4.4501
4.71022
4.97561
5.24571
5.52007
5.79828
6.07996
6.36464
6.65161
6.9397
7.22681
7.50942
7.78168
8.03449
8.25446
8.4234
8.51928
0.0262519
0.0419431
0.075364
0.132235
0.201627
0.274328
0.348082
0.423067
0.499909
0.579235
0.661613
0.74756
0.837566
0.932107
1.03166
1.1367
1.24773
1.36524
1.48976
1.6218
1.76189
1.91054
2.06824
2.23546
2.41258
2.59995
2.79782
3.00631
3.22547
3.45519
3.69525
3.94532
4.20498
4.47375
4.75111
5.03655
5.32963
5.62994
5.93714
6.25093
6.57096
6.89664
7.22681
7.55933
7.89021
8.2126
8.51531
8.78148
8.98773
9.10552
0.0260984
0.0417553
0.0751294
0.131774
0.200699
0.272811
0.345916
0.420198
0.49627
0.574744
0.656173
0.74106
0.829878
0.923093
1.02117
1.12458
1.23382
1.3494
1.47185
1.60172
1.73959
1.88603
2.04164
2.20698
2.38263
2.56909
2.76684
2.97627
3.19767
3.43126
3.6771
3.93516
4.2053
4.4873
4.78085
5.08563
5.40133
5.72767
6.06442
6.41139
6.76831
7.13468
7.50942
7.89021
8.27263
8.64866
9.00493
9.32078
9.56723
9.70865
0.0259641
0.0415914
0.0749256
0.131374
0.199894
0.2715
0.344049
0.41773
0.493145
0.570894
0.651512
0.73549
0.823287
0.915355
1.01215
1.11413
1.22178
1.33562
1.45618
1.58403
1.71978
1.86405
2.0175
2.1808
2.35465
2.53972
2.73667
2.94614
3.1687
3.40485
3.655
3.91946
4.19843
4.49201
4.80022
5.123
5.46027
5.81196
6.17799
6.5583
6.95275
7.36091
7.78168
8.2126
8.64866
9.08064
9.4928
9.86051
10.1489
10.315
0.0258507
0.0414531
0.0747545
0.131038
0.19922
0.270404
0.342493
0.415677
0.490551
0.5677
0.64765
0.730876
0.817826
0.908937
1.00465
1.10542
1.21173
1.32407
1.44298
1.56905
1.70289
1.84516
1.99657
2.15786
2.32981
2.51324
2.70898
2.91786
3.1407
3.37829
3.63138
3.90062
4.18661
4.48983
4.81067
5.14942
5.50634
5.8816
6.27538
6.68778
7.11881
7.56809
8.03449
8.51531
9.00493
9.4928
9.96078
10.3802
10.7104
10.901
0.0257602
0.0413432
0.0746188
0.130772
0.198686
0.269538
0.341266
0.414063
0.488514
0.565196
0.644623
0.727262
0.813548
0.903908
0.998772
1.09858
1.20381
1.31495
1.43253
1.55713
1.68938
1.82996
1.97959
2.13908
2.30928
2.49109
2.68548
2.89343
3.11599
3.35418
3.60905
3.8816
4.17276
4.48343
4.8144
5.16635
5.53989
5.93556
6.35379
6.79492
7.25909
7.746
8.25446
8.78148
9.32078
9.86051
10.3802
10.8474
11.2161
11.4293
0.0256957
0.0412647
0.0745223
0.130582
0.198306
0.268925
0.340399
0.412922
0.487076
0.563431
0.642492
0.724718
0.810538
0.900369
0.994632
1.09376
1.19822
1.30849
1.42511
1.54864
1.67973
1.81904
1.96734
2.12545
2.29426
2.47474
2.66795
2.87499
3.09704
3.33533
3.59111
3.86566
4.16023
4.47602
4.81418
5.17577
5.56173
5.97292
6.41005
6.87369
7.36412
7.88111
8.4234
8.98773
9.56723
10.1489
10.7104
11.2161
11.6158
11.847
0.0256608
0.0412224
0.0744703
0.13048
0.198102
0.268595
0.339933
0.412311
0.486307
0.562486
0.641352
0.723358
0.808928
0.898476
0.992418
1.09118
1.19523
1.30503
1.42112
1.54408
1.67452
1.81314
1.96069
2.11802
2.28603
2.46574
2.65823
2.86468
3.08634
3.32455
3.5807
3.85619
4.15247
4.47094
4.81295
5.17979
5.57264
5.99256
6.44044
6.91701
7.42266
7.95719
8.51928
9.10552
9.70865
10.315
10.901
11.4293
11.847
12.0888
)
;

boundaryField
{
    bottomWall
    {
        type            calculated;
        value           nonuniform List<scalar> 
50
(
0.110684
0.106316
0.0981439
0.0886608
0.0797094
0.0720185
0.065663
0.0604735
0.0562313
0.0527378
0.0498304
0.0473819
0.0452945
0.0434935
0.0419218
0.040536
0.0393027
0.0381961
0.0371959
0.0362862
0.0354541
0.0346894
0.0339836
0.0333297
0.032722
0.0321556
0.0316263
0.0311307
0.0306657
0.0302287
0.0298176
0.0294303
0.0290653
0.0287211
0.0283966
0.0280906
0.0278025
0.0275315
0.0272772
0.0270392
0.0268175
0.0266121
0.0264234
0.0262519
0.0260984
0.0259641
0.0258507
0.0257602
0.0256957
0.0256608
)
;
    }
    leftWall
    {
        type            calculated;
        value           nonuniform List<scalar> 
50
(
0.110684
0.106316
0.0981439
0.0886608
0.0797094
0.0720185
0.065663
0.0604735
0.0562313
0.0527378
0.0498304
0.0473819
0.0452945
0.0434935
0.0419218
0.040536
0.0393027
0.0381961
0.0371959
0.0362862
0.0354541
0.0346894
0.0339836
0.0333297
0.032722
0.0321556
0.0316263
0.0311307
0.0306657
0.0302287
0.0298176
0.0294303
0.0290653
0.0287211
0.0283966
0.0280906
0.0278025
0.0275315
0.0272772
0.0270392
0.0268175
0.0266121
0.0264234
0.0262519
0.0260984
0.0259641
0.0258507
0.0257602
0.0256957
0.0256608
)
;
    }
    topSym
    {
        type            symmetryPlane;
    }
    rightSym
    {
        type            symmetryPlane;
    }
    inlet
    {
        type            cyclic;
    }
    outlet
    {
        type            cyclic;
    }
}


// ************************************************************************* //
