/*--------------------------------*- C++ -*----------------------------------*\
| =========                 |                                                 |
| \\      /  F ield         | OpenFOAM: The Open Source CFD Toolbox           |
|  \\    /   O peration     | Version:  v1912                                 |
|   \\  /    A nd           | Website:  www.openfoam.com                      |
|    \\/     M anipulation  |                                                 |
\*---------------------------------------------------------------------------*/
FoamFile
{
    version     2.0;
    format      ascii;
    class       volVectorField;
    location    "10000";
    object      U;
}
// * * * * * * * * * * * * * * * * * * * * * * * * * * * * * * * * * * * * * //

dimensions      [0 1 -1 0 0 0 0];


internalField   nonuniform List<vector> 
2500
(
(0.000895771 -4.81491e-15 -4.81491e-15)
(0.00240417 -7.32561e-15 -2.57809e-15)
(0.00387642 -3.58925e-15 -8.81625e-16)
(0.00535671 -1.92096e-15 -4.12997e-16)
(0.00686112 -1.15459e-15 -1.94772e-16)
(0.00839154 -7.3341e-16 -8.75784e-17)
(0.00994075 -5.04962e-16 -4.21056e-17)
(0.0114963 -3.76835e-16 -2.24066e-17)
(0.0130443 -2.98041e-16 -1.31104e-17)
(0.0145723 -2.4508e-16 -8.4378e-18)
(0.0160711 -2.06886e-16 -5.89711e-18)
(0.0175351 -1.77763e-16 -4.41014e-18)
(0.0189618 -1.54708e-16 -3.44885e-18)
(0.0203507 -1.35933e-16 -2.78412e-18)
(0.021703 -1.20204e-16 -2.29169e-18)
(0.0230205 -1.07038e-16 -1.93104e-18)
(0.0243052 -9.60606e-17 -1.60389e-18)
(0.0255593 -8.62704e-17 -1.33832e-18)
(0.0267847 -7.78288e-17 -1.09414e-18)
(0.027983 -7.07428e-17 -9.42453e-19)
(0.0291556 -6.39734e-17 -8.84766e-19)
(0.0303039 -5.82902e-17 -6.96506e-19)
(0.0314286 -5.31491e-17 -6.19217e-19)
(0.0325308 -4.85057e-17 -4.53676e-19)
(0.0336108 -4.44236e-17 -3.49037e-19)
(0.0346692 -4.07092e-17 -3.34389e-19)
(0.0357063 -3.74593e-17 -4.39556e-19)
(0.0367223 -3.34462e-17 -3.5972e-19)
(0.0377172 -3.08908e-17 -2.70395e-19)
(0.0386909 -2.81164e-17 -3.39956e-19)
(0.0396433 -2.52753e-17 -2.20998e-19)
(0.040574 -2.3285e-17 -2.25021e-19)
(0.0414826 -2.03536e-17 -2.47916e-19)
(0.0423685 -1.78837e-17 -1.78601e-19)
(0.0432309 -1.47705e-17 -1.88106e-19)
(0.0440688 -1.36921e-17 -1.68959e-19)
(0.044881 -1.39778e-17 -2.20216e-19)
(0.0456661 -1.01847e-17 -5.34874e-20)
(0.0464221 -1.02925e-17 5.00453e-20)
(0.047147 -1.11748e-17 -4.514e-20)
(0.0478381 -8.86088e-18 1.92962e-19)
(0.0484921 -9.91027e-18 2.19826e-19)
(0.0491053 -1.22687e-17 5.27465e-20)
(0.0496729 -1.06478e-17 -1.76967e-19)
(0.0501894 -8.40748e-18 -1.47422e-19)
(0.0506481 -5.87014e-18 -1.78108e-19)
(0.0510405 -3.74829e-18 3.48359e-22)
(0.0513567 -5.3961e-18 1.56093e-19)
(0.0515843 -4.12263e-18 5.52968e-20)
(0.0517078 -1.57305e-18 -6.18577e-20)
(0.00240417 -2.5781e-15 -7.32557e-15)
(0.0067404 -5.23536e-15 -5.23526e-15)
(0.0110505 -4.1655e-15 -2.99708e-15)
(0.01539 -3.06833e-15 -1.65611e-15)
(0.0197808 -2.22685e-15 -8.79391e-16)
(0.0242184 -1.61375e-15 -4.64277e-16)
(0.0286788 -1.20354e-15 -2.53421e-16)
(0.0331266 -9.3411e-16 -1.46033e-16)
(0.0375243 -7.51454e-16 -8.97444e-17)
(0.0418402 -6.22005e-16 -5.90514e-17)
(0.0460521 -5.26201e-16 -4.12526e-17)
(0.0501475 -4.52399e-16 -3.02987e-17)
(0.0541223 -3.93779e-16 -2.29831e-17)
(0.0579779 -3.45991e-16 -1.81013e-17)
(0.0617194 -3.0603e-16 -1.43465e-17)
(0.0653532 -2.72516e-16 -1.15852e-17)
(0.0688863 -2.44365e-16 -9.31394e-18)
(0.0723255 -2.19494e-16 -7.67791e-18)
(0.0756768 -1.97992e-16 -6.34169e-18)
(0.0789457 -1.79777e-16 -5.37776e-18)
(0.0821366 -1.62631e-16 -4.68099e-18)
(0.0852534 -1.47997e-16 -3.81668e-18)
(0.0882994 -1.34834e-16 -3.32832e-18)
(0.0912771 -1.22934e-16 -2.54833e-18)
(0.0941886 -1.12446e-16 -2.10761e-18)
(0.0970356 -1.03053e-16 -1.84755e-18)
(0.0998192 -9.46428e-17 -2.08976e-18)
(0.10254 -8.46696e-17 -1.75791e-18)
(0.105199 -7.81207e-17 -1.35114e-18)
(0.107796 -7.11888e-17 -1.44501e-18)
(0.110332 -6.42991e-17 -9.93148e-19)
(0.112804 -5.94498e-17 -1.01621e-18)
(0.115213 -5.25117e-17 -8.46445e-19)
(0.117558 -4.64229e-17 -8.25268e-19)
(0.119835 -3.88481e-17 -7.89102e-19)
(0.122045 -3.61793e-17 -3.02519e-19)
(0.124182 -3.63776e-17 -7.54711e-19)
(0.126244 -2.72295e-17 -2.91415e-19)
(0.128227 -2.71808e-17 9.66873e-21)
(0.130125 -2.87816e-17 -4.22778e-19)
(0.131932 -2.31058e-17 3.63399e-19)
(0.133639 -2.49865e-17 7.47552e-19)
(0.135237 -2.99157e-17 3.40491e-20)
(0.136714 -2.61656e-17 -5.16479e-19)
(0.138057 -2.10538e-17 -6.73351e-19)
(0.139248 -1.49544e-17 -7.02323e-19)
(0.140266 -1.01339e-17 1.29894e-19)
(0.141086 -1.39999e-17 6.82305e-19)
(0.141675 -1.00725e-17 -1.67499e-20)
(0.141995 -3.6059e-18 -3.9566e-19)
(0.00387642 -8.81655e-16 -3.58916e-15)
(0.0110505 -2.99722e-15 -4.1653e-15)
(0.018293 -3.27903e-15 -3.27876e-15)
(0.0256378 -2.98544e-15 -2.24236e-15)
(0.033091 -2.48459e-15 -1.41653e-15)
(0.0406244 -1.98764e-15 -8.65657e-16)
(0.0481816 -1.58476e-15 -5.29478e-16)
(0.0556944 -1.28089e-15 -3.3139e-16)
(0.0630978 -1.0546e-15 -2.15287e-16)
(0.0703411 -8.84163e-16 -1.46324e-16)
(0.0773913 -7.53101e-16 -1.03899e-16)
(0.0842323 -6.49874e-16 -7.66825e-17)
(0.0908606 -5.66814e-16 -5.82493e-17)
(0.0972813 -4.98428e-16 -4.57361e-17)
(0.103504 -4.41005e-16 -3.60247e-17)
(0.109541 -3.92716e-16 -2.89001e-17)
(0.115404 -3.5182e-16 -2.3416e-17)
(0.121106 -3.1586e-16 -1.91504e-17)
(0.126655 -2.84715e-16 -1.57781e-17)
(0.132062 -2.5813e-16 -1.33331e-17)
(0.137334 -2.33335e-16 -1.14548e-17)
(0.142478 -2.11974e-16 -9.67449e-18)
(0.147499 -1.92762e-16 -8.08452e-18)
(0.152401 -1.75472e-16 -6.49921e-18)
(0.157188 -1.60283e-16 -5.09423e-18)
(0.161863 -1.46767e-16 -4.55435e-18)
(0.166428 -1.34525e-16 -4.42788e-18)
(0.170884 -1.20316e-16 -4.29412e-18)
(0.175232 -1.10871e-16 -3.28151e-18)
(0.179473 -1.0107e-16 -3.34596e-18)
(0.183607 -9.14607e-17 -2.12924e-18)
(0.187632 -8.47732e-17 -2.18985e-18)
(0.191547 -7.52839e-17 -1.81118e-18)
(0.195351 -6.67372e-17 -2.01451e-18)
(0.199041 -5.61593e-17 -1.63339e-18)
(0.202614 -5.26007e-17 -7.37975e-19)
(0.206065 -5.25362e-17 -1.55436e-18)
(0.209389 -3.95061e-17 -8.35996e-19)
(0.21258 -3.93658e-17 6.79694e-20)
(0.215628 -4.12355e-17 -1.13608e-18)
(0.218526 -3.30072e-17 2.11845e-19)
(0.221259 -3.53148e-17 1.51815e-18)
(0.223814 -4.18135e-17 3.69966e-19)
(0.226172 -3.66916e-17 -1.02328e-18)
(0.228313 -2.973e-17 -1.43165e-18)
(0.230209 -2.09485e-17 -1.47787e-18)
(0.231828 -1.47846e-17 3.0306e-19)
(0.233131 -2.0929e-17 1.14706e-18)
(0.234067 -1.46889e-17 -4.89807e-19)
(0.234574 -5.11472e-18 -1.01146e-18)
(0.00535671 -4.13027e-16 -1.92079e-15)
(0.01539 -1.65627e-15 -3.06797e-15)
(0.0256378 -2.24265e-15 -2.98498e-15)
(0.0360874 -2.38822e-15 -2.38775e-15)
(0.0467057 -2.23725e-15 -1.72235e-15)
(0.0574193 -1.96161e-15 -1.17823e-15)
(0.0681209 -1.67251e-15 -7.89685e-16)
(0.0786977 -1.41522e-15 -5.30688e-16)
(0.0890571 -1.20041e-15 -3.63239e-16)
(0.0991363 -1.02537e-15 -2.55668e-16)
(0.108902 -8.83336e-16 -1.85521e-16)
(0.118342 -7.67403e-16 -1.38604e-16)
(0.127462 -6.72013e-16 -1.06124e-16)
(0.136274 -5.92044e-16 -8.33023e-17)
(0.144797 -5.24188e-16 -6.57629e-17)
(0.15305 -4.66807e-16 -5.27341e-17)
(0.161052 -4.17784e-16 -4.28108e-17)
(0.16882 -3.74733e-16 -3.51059e-17)
(0.176368 -3.37372e-16 -2.87815e-17)
(0.18371 -3.0528e-16 -2.41779e-17)
(0.190858 -2.75584e-16 -2.06162e-17)
(0.19782 -2.49672e-16 -1.77558e-17)
(0.204605 -2.26435e-16 -1.42901e-17)
(0.211218 -2.05713e-16 -1.20597e-17)
(0.217665 -1.87538e-16 -9.5654e-18)
(0.22395 -1.71482e-16 -8.17218e-18)
(0.230075 -1.56883e-16 -7.65571e-18)
(0.236044 -1.40191e-16 -7.8022e-18)
(0.241857 -1.28881e-16 -5.69358e-18)
(0.247515 -1.17472e-16 -5.87733e-18)
(0.253018 -1.06416e-16 -3.83407e-18)
(0.258366 -9.88234e-17 -3.86779e-18)
(0.263557 -8.8095e-17 -3.44165e-18)
(0.268589 -7.81293e-17 -4.12901e-18)
(0.273459 -6.59402e-17 -2.70909e-18)
(0.278164 -6.21725e-17 -1.0105e-18)
(0.282698 -6.17601e-17 -3.18795e-18)
(0.287055 -4.64823e-17 -1.29013e-18)
(0.291227 -4.64148e-17 1.19251e-19)
(0.295205 -4.82678e-17 -1.80811e-18)
(0.298976 -3.84589e-17 -2.40234e-19)
(0.302527 -4.09872e-17 1.98015e-18)
(0.305838 -4.82665e-17 5.20941e-19)
(0.30889 -4.24549e-17 -1.68136e-18)
(0.311654 -3.44911e-17 -1.58238e-18)
(0.314098 -2.39453e-17 -2.10526e-18)
(0.316183 -1.751e-17 4.67124e-19)
(0.317857 -2.56232e-17 1.548e-18)
(0.31906 -1.77993e-17 -7.63714e-19)
(0.319711 -6.14625e-18 -1.21004e-18)
(0.00686112 -1.94791e-16 -1.15436e-15)
(0.0197808 -8.79534e-16 -2.22635e-15)
(0.033091 -1.4168e-15 -2.48396e-15)
(0.0467057 -1.7228e-15 -2.23659e-15)
(0.0605021 -1.79372e-15 -1.79314e-15)
(0.0743187 -1.71129e-15 -1.34529e-15)
(0.0879795 -1.5573e-15 -9.75141e-16)
(0.101335 -1.38275e-15 -6.98948e-16)
(0.114288 -1.21376e-15 -5.03317e-16)
(0.126789 -1.06172e-15 -3.67749e-16)
(0.138826 -9.29581e-16 -2.73775e-16)
(0.150409 -8.1646e-16 -2.08074e-16)
(0.161561 -7.20126e-16 -1.61253e-16)
(0.172312 -6.37301e-16 -1.27149e-16)
(0.182689 -5.65831e-16 -1.00976e-16)
(0.192723 -5.04741e-16 -8.10438e-17)
(0.202439 -4.52011e-16 -6.60163e-17)
(0.211859 -4.05392e-16 -5.43919e-17)
(0.221004 -3.64765e-16 -4.40998e-17)
(0.229891 -3.29796e-16 -3.7134e-17)
(0.238533 -2.97552e-16 -3.16566e-17)
(0.246942 -2.68836e-16 -2.74065e-17)
(0.255129 -2.43298e-16 -2.1497e-17)
(0.2631 -2.2087e-16 -1.8313e-17)
(0.270861 -2.00991e-16 -1.52554e-17)
(0.278419 -1.83556e-16 -1.28415e-17)
(0.285776 -1.67741e-16 -1.16161e-17)
(0.292934 -1.49801e-16 -1.16027e-17)
(0.299896 -1.37409e-16 -8.01156e-18)
(0.306663 -1.25332e-16 -8.60706e-18)
(0.313234 -1.13608e-16 -6.26159e-18)
(0.319609 -1.05602e-16 -6.01645e-18)
(0.325786 -9.45219e-17 -5.54662e-18)
(0.331762 -8.38262e-17 -6.49589e-18)
(0.337536 -7.08971e-17 -3.82155e-18)
(0.343102 -6.73052e-17 -1.37545e-18)
(0.348455 -6.63985e-17 -5.32319e-18)
(0.353589 -5.01195e-17 -1.75664e-18)
(0.358495 -5.0208e-17 8.13997e-20)
(0.363162 -5.18642e-17 -1.5196e-18)
(0.367579 -4.13562e-17 -3.95859e-20)
(0.371728 -4.39544e-17 2.69643e-18)
(0.375591 -5.14572e-17 1.23873e-18)
(0.379143 -4.53499e-17 -2.60198e-18)
(0.382356 -3.68907e-17 -9.06009e-19)
(0.385194 -2.53613e-17 -2.30083e-18)
(0.387609 -1.90628e-17 3.11179e-19)
(0.389548 -2.84708e-17 1.57762e-18)
(0.390939 -1.97392e-17 -1.06164e-18)
(0.391692 -6.82417e-18 -1.76831e-18)
(0.00839154 -8.76145e-17 -7.33098e-16)
(0.0242184 -4.64423e-16 -1.61309e-15)
(0.0406244 -8.65878e-16 -1.98686e-15)
(0.0574193 -1.17863e-15 -1.9608e-15)
(0.0743187 -1.34582e-15 -1.71063e-15)
(0.091 -1.38471e-15 -1.38435e-15)
(0.10721 -1.33912e-15 -1.07267e-15)
(0.122811 -1.24745e-15 -8.14082e-16)
(0.137762 -1.13606e-15 -6.14686e-16)
(0.152073 -1.02158e-15 -4.66165e-16)
(0.16578 -9.1296e-16 -3.56899e-16)
(0.17893 -8.14113e-16 -2.76676e-16)
(0.19157 -7.25973e-16 -2.17575e-16)
(0.203746 -6.47413e-16 -1.72881e-16)
(0.215497 -5.77977e-16 -1.38395e-16)
(0.226861 -5.17668e-16 -1.11446e-16)
(0.237868 -4.64959e-16 -9.09041e-17)
(0.248545 -4.17588e-16 -7.52055e-17)
(0.258915 -3.76184e-16 -6.11508e-17)
(0.268995 -3.4051e-16 -5.13576e-17)
(0.278801 -3.07316e-16 -4.40408e-17)
(0.288346 -2.7714e-16 -3.77207e-17)
(0.297639 -2.50509e-16 -2.99208e-17)
(0.306688 -2.27659e-16 -2.47951e-17)
(0.3155 -2.07061e-16 -2.09268e-17)
(0.324078 -1.88871e-16 -1.80699e-17)
(0.332426 -1.72508e-16 -1.60076e-17)
(0.340547 -1.54089e-16 -1.49293e-17)
(0.34844 -1.41197e-16 -1.03709e-17)
(0.356107 -1.29053e-16 -1.06678e-17)
(0.363546 -1.16994e-16 -8.86264e-18)
(0.370756 -1.0874e-16 -8.18883e-18)
(0.377735 -9.76973e-17 -7.71047e-18)
(0.38448 -8.66495e-17 -8.38322e-18)
(0.390988 -7.35272e-17 -5.06847e-18)
(0.397253 -7.01608e-17 -1.94201e-18)
(0.40327 -6.8708e-17 -7.44846e-18)
(0.409031 -5.21918e-17 -2.24792e-18)
(0.414528 -5.23475e-17 -1.88658e-19)
(0.419749 -5.3748e-17 -1.38814e-18)
(0.424681 -4.30882e-17 -1.19448e-21)
(0.429308 -4.56745e-17 3.91972e-18)
(0.433608 -5.32132e-17 2.0799e-18)
(0.437557 -4.69662e-17 -3.41923e-18)
(0.441124 -3.81929e-17 -7.41541e-19)
(0.444269 -2.62136e-17 -3.22656e-18)
(0.446944 -2.00619e-17 -1.99525e-19)
(0.449089 -3.01167e-17 9.64522e-19)
(0.450626 -2.09908e-17 -1.77232e-18)
(0.451458 -7.32203e-18 -3.56964e-18)
(0.00994075 -4.21257e-17 -5.04599e-16)
(0.0286788 -2.5353e-16 -1.20279e-15)
(0.0481816 -5.29692e-16 -1.58388e-15)
(0.0681209 -7.90069e-16 -1.67161e-15)
(0.0879795 -9.75797e-16 -1.55645e-15)
(0.10721 -1.07315e-15 -1.33871e-15)
(0.125493 -1.09715e-15 -1.09702e-15)
(0.142779 -1.07029e-15 -8.75297e-16)
(0.159149 -1.01209e-15 -6.90055e-16)
(0.174712 -9.37816e-16 -5.42431e-16)
(0.18957 -8.58109e-16 -4.27467e-16)
(0.203808 -7.79471e-16 -3.38718e-16)
(0.217499 -7.049e-16 -2.70423e-16)
(0.230701 -6.3542e-16 -2.17233e-16)
(0.243463 -5.72094e-16 -1.75414e-16)
(0.255823 -5.1565e-16 -1.423e-16)
(0.267817 -4.65617e-16 -1.16615e-16)
(0.27947 -4.19689e-16 -9.63111e-17)
(0.290806 -3.7909e-16 -7.89833e-17)
(0.301841 -3.44096e-16 -6.64181e-17)
(0.312592 -3.11054e-16 -5.71432e-17)
(0.323069 -2.80419e-16 -4.83441e-17)
(0.333281 -2.53418e-16 -3.92689e-17)
(0.343234 -2.30593e-16 -3.20266e-17)
(0.352934 -2.10077e-16 -2.65769e-17)
(0.362383 -1.91651e-16 -2.35636e-17)
(0.371583 -1.74945e-16 -2.09727e-17)
(0.380534 -1.56417e-16 -1.85698e-17)
(0.389237 -1.43278e-16 -1.35794e-17)
(0.397689 -1.31369e-16 -1.22851e-17)
(0.405889 -1.19218e-16 -1.07898e-17)
(0.413834 -1.10647e-16 -1.00231e-17)
(0.421521 -9.97134e-17 -9.46531e-18)
(0.428945 -8.85276e-17 -9.36577e-18)
(0.436102 -7.54388e-17 -6.2373e-18)
(0.442986 -7.21963e-17 -2.94434e-18)
(0.44959 -7.01335e-17 -7.62079e-18)
(0.455907 -5.37906e-17 -2.64442e-18)
(0.461926 -5.40199e-17 2.10427e-19)
(0.467636 -5.50476e-17 -1.85145e-18)
(0.473022 -4.44021e-17 -4.2916e-19)
(0.478069 -4.70382e-17 4.69396e-18)
(0.482753 -5.45554e-17 2.40334e-18)
(0.487049 -4.81932e-17 -3.24998e-18)
(0.490923 -3.92447e-17 -1.41799e-18)
(0.494337 -2.70297e-17 -4.79202e-18)
(0.497237 -2.08872e-17 -1.47914e-18)
(0.49956 -3.11091e-17 -8.60106e-20)
(0.501224 -2.18972e-17 -2.33197e-18)
(0.502124 -7.76504e-18 -6.01467e-18)
(0.0114963 -2.24291e-17 -3.76494e-16)
(0.0331266 -1.46115e-16 -9.33419e-16)
(0.0556944 -3.31478e-16 -1.2801e-15)
(0.0786977 -5.30764e-16 -1.41448e-15)
(0.101335 -6.99292e-16 -1.3821e-15)
(0.122811 -8.14536e-16 -1.24707e-15)
(0.142779 -8.75402e-16 -1.07031e-15)
(0.161329 -8.9152e-16 -8.91667e-16)
(0.178702 -8.74509e-16 -7.30748e-16)
(0.195124 -8.35642e-16 -5.9404e-16)
(0.210768 -7.84162e-16 -4.81524e-16)
(0.225761 -7.269e-16 -3.9024e-16)
(0.240196 -6.68272e-16 -3.16902e-16)
(0.254143 -6.10462e-16 -2.58107e-16)
(0.267656 -5.55557e-16 -2.10632e-16)
(0.280777 -5.05208e-16 -1.72735e-16)
(0.29354 -4.5921e-16 -1.42935e-16)
(0.305971 -4.16171e-16 -1.17919e-16)
(0.31809 -3.77899e-16 -9.74902e-17)
(0.329914 -3.44396e-16 -8.18915e-17)
(0.341455 -3.12006e-16 -6.97631e-17)
(0.352723 -2.8162e-16 -5.914e-17)
(0.363725 -2.54848e-16 -4.90201e-17)
(0.374464 -2.32189e-16 -4.02918e-17)
(0.384943 -2.12164e-16 -3.30804e-17)
(0.395163 -1.9392e-16 -2.90229e-17)
(0.405124 -1.76913e-16 -2.6142e-17)
(0.414824 -1.58445e-16 -2.27619e-17)
(0.424259 -1.45048e-16 -1.77839e-17)
(0.433428 -1.33367e-16 -1.49104e-17)
(0.442325 -1.21383e-16 -1.28804e-17)
(0.450947 -1.12458e-16 -1.18185e-17)
(0.459287 -1.01525e-16 -1.09771e-17)
(0.467341 -9.03924e-17 -1.06987e-17)
(0.475101 -7.75139e-17 -8.06843e-18)
(0.482561 -7.38559e-17 -4.94552e-18)
(0.489713 -7.13862e-17 -5.9887e-18)
(0.496548 -5.55982e-17 -2.97518e-18)
(0.503054 -5.56883e-17 6.6368e-19)
(0.50922 -5.64127e-17 -2.7098e-18)
(0.51503 -4.57247e-17 -8.8407e-19)
(0.520466 -4.8397e-17 4.452e-18)
(0.525507 -5.58151e-17 2.08902e-18)
(0.530124 -4.94294e-17 -2.38197e-18)
(0.534284 -4.0415e-17 -2.53015e-18)
(0.537944 -2.80727e-17 -6.32569e-18)
(0.541052 -2.1712e-17 -3.37246e-18)
(0.543539 -3.17024e-17 -9.89696e-19)
(0.545319 -2.26408e-17 -1.72266e-18)
(0.546282 -8.19097e-18 -8.16896e-18)
(0.0130443 -1.31529e-17 -2.97717e-16)
(0.0375243 -8.98749e-17 -7.50833e-16)
(0.0630978 -2.15457e-16 -1.05394e-15)
(0.0890571 -3.63389e-16 -1.19997e-15)
(0.114288 -5.03597e-16 -1.21362e-15)
(0.137762 -6.14967e-16 -1.13634e-15)
(0.159149 -6.8999e-16 -1.01267e-15)
(0.178702 -7.30359e-16 -8.75223e-16)
(0.196826 -7.41457e-16 -7.42274e-16)
(0.213864 -7.29972e-16 -6.22253e-16)
(0.23006 -7.02659e-16 -5.17931e-16)
(0.245582 -6.65472e-16 -4.29388e-16)
(0.260548 -6.22852e-16 -3.55231e-16)
(0.275038 -5.7761e-16 -2.93652e-16)
(0.289114 -5.32478e-16 -2.42734e-16)
(0.302818 -4.89555e-16 -2.01456e-16)
(0.316185 -4.48499e-16 -1.68442e-16)
(0.329239 -4.0907e-16 -1.40029e-16)
(0.342 -3.7382e-16 -1.1643e-16)
(0.35448 -3.42242e-16 -9.7928e-17)
(0.366691 -3.11357e-16 -8.27583e-17)
(0.378639 -2.82126e-16 -7.08312e-17)
(0.390328 -2.55893e-16 -5.93989e-17)
(0.401759 -2.33404e-16 -4.93341e-17)
(0.412933 -2.13775e-16 -4.06088e-17)
(0.423848 -1.96061e-16 -3.4828e-17)
(0.4345 -1.79125e-16 -3.13379e-17)
(0.444885 -1.60817e-16 -2.66306e-17)
(0.454998 -1.47183e-16 -2.24298e-17)
(0.464832 -1.35473e-16 -1.90887e-17)
(0.474382 -1.23642e-16 -1.62459e-17)
(0.48364 -1.14424e-16 -1.41118e-17)
(0.492599 -1.03603e-16 -1.29459e-17)
(0.50125 -9.26784e-17 -1.28967e-17)
(0.509585 -7.98949e-17 -1.05974e-17)
(0.517596 -7.53387e-17 -6.85889e-18)
(0.525272 -7.25666e-17 -4.78524e-18)
(0.532603 -5.77626e-17 -3.1916e-18)
(0.539577 -5.76052e-17 -4.05173e-20)
(0.54618 -5.78933e-17 -4.19015e-18)
(0.552397 -4.71455e-17 -4.91851e-19)
(0.558208 -4.99025e-17 4.049e-18)
(0.56359 -5.70747e-17 9.69952e-19)
(0.568515 -5.0747e-17 -1.58249e-18)
(0.572948 -4.17934e-17 -4.05606e-18)
(0.576844 -2.93601e-17 -7.55431e-18)
(0.580149 -2.26028e-17 -4.35799e-18)
(0.582792 -3.20068e-17 -1.67316e-18)
(0.584683 -2.33029e-17 -1.2563e-18)
(0.585705 -8.68012e-18 -1.01047e-17)
(0.0145723 -8.47219e-18 -2.44766e-16)
(0.0418402 -5.91519e-17 -6.21419e-16)
(0.0703411 -1.465e-16 -8.83569e-16)
(0.0991363 -2.55926e-16 -1.02506e-15)
(0.126789 -3.68235e-16 -1.06181e-15)
(0.152073 -4.66631e-16 -1.02227e-15)
(0.174712 -5.42318e-16 -9.38789e-16)
(0.195124 -5.9345e-16 -8.36779e-16)
(0.213864 -6.21197e-16 -7.312e-16)
(0.23138 -6.28788e-16 -6.30303e-16)
(0.247985 -6.20436e-16 -5.38092e-16)
(0.263891 -6.00451e-16 -4.56023e-16)
(0.279239 -5.7252e-16 -3.84592e-16)
(0.294127 -5.39513e-16 -3.23049e-16)
(0.308622 -5.04556e-16 -2.71361e-16)
(0.322772 -4.69712e-16 -2.27639e-16)
(0.33661 -4.3439e-16 -1.91492e-16)
(0.350162 -3.99153e-16 -1.61019e-16)
(0.363445 -3.67455e-16 -1.35167e-16)
(0.376471 -3.38389e-16 -1.14588e-16)
(0.389248 -3.09538e-16 -9.71441e-17)
(0.40178 -2.81794e-16 -8.36489e-17)
(0.414067 -2.56219e-16 -7.02994e-17)
(0.42611 -2.34236e-16 -5.88829e-17)
(0.437905 -2.15146e-16 -4.94806e-17)
(0.449447 -1.97991e-16 -4.22312e-17)
(0.46073 -1.81131e-16 -3.69321e-17)
(0.471747 -1.63365e-16 -3.09599e-17)
(0.48249 -1.49883e-16 -2.66369e-17)
(0.492949 -1.37913e-16 -2.36821e-17)
(0.503115 -1.2592e-16 -1.97504e-17)
(0.512978 -1.16478e-16 -1.70053e-17)
(0.522527 -1.059e-16 -1.48672e-17)
(0.531753 -9.52079e-17 -1.50352e-17)
(0.540643 -8.24031e-17 -1.28115e-17)
(0.549187 -7.67765e-17 -8.401e-18)
(0.557373 -7.39155e-17 -5.24008e-18)
(0.565188 -6.02873e-17 -4.37661e-18)
(0.572619 -5.98132e-17 -4.26444e-19)
(0.57965 -5.93419e-17 -6.47893e-18)
(0.586265 -4.85304e-17 -1.06727e-19)
(0.592443 -5.16662e-17 3.67506e-18)
(0.598159 -5.83897e-17 -5.90402e-19)
(0.603385 -5.21258e-17 -1.46372e-18)
(0.608085 -4.334e-17 -5.57608e-18)
(0.612211 -3.07296e-17 -8.17342e-18)
(0.615709 -2.35467e-17 -5.14902e-18)
(0.618503 -3.229e-17 -2.59705e-18)
(0.620502 -2.39401e-17 -2.37646e-18)
(0.621581 -9.15102e-18 -1.2394e-17)
(0.0160711 -5.92676e-18 -2.06585e-16)
(0.0460521 -4.13365e-17 -5.25633e-16)
(0.0773913 -1.04106e-16 -7.52563e-16)
(0.108902 -1.85942e-16 -8.83105e-16)
(0.138826 -2.74474e-16 -9.29888e-16)
(0.16578 -3.57437e-16 -9.13756e-16)
(0.18957 -4.27204e-16 -8.59265e-16)
(0.210768 -4.80687e-16 -7.85453e-16)
(0.23006 -5.16797e-16 -7.0419e-16)
(0.247985 -5.36522e-16 -6.22327e-16)
(0.264921 -5.41641e-16 -5.43853e-16)
(0.28112 -5.35207e-16 -4.70999e-16)
(0.296753 -5.19921e-16 -4.04858e-16)
(0.311933 -4.98528e-16 -3.46033e-16)
(0.32674 -4.73182e-16 -2.95454e-16)
(0.341226 -4.45639e-16 -2.50876e-16)
(0.355429 -4.16826e-16 -2.12357e-16)
(0.369374 -3.86847e-16 -1.80433e-16)
(0.383079 -3.59015e-16 -1.53906e-16)
(0.396554 -3.3276e-16 -1.31198e-16)
(0.409805 -3.06273e-16 -1.12109e-16)
(0.422834 -2.8021e-16 -9.61195e-17)
(0.435641 -2.55683e-16 -8.13406e-17)
(0.448221 -2.34762e-16 -6.89851e-17)
(0.460569 -2.16234e-16 -5.89667e-17)
(0.472677 -1.99343e-16 -5.04442e-17)
(0.484536 -1.82778e-16 -4.30038e-17)
(0.496135 -1.65691e-16 -3.6542e-17)
(0.507464 -1.52606e-16 -3.1225e-17)
(0.518509 -1.40402e-16 -2.76467e-17)
(0.529259 -1.282e-16 -2.34502e-17)
(0.539699 -1.1856e-16 -1.95776e-17)
(0.549816 -1.08244e-16 -1.81319e-17)
(0.559596 -9.80025e-17 -1.67796e-17)
(0.569026 -8.50465e-17 -1.53686e-17)
(0.578091 -7.8394e-17 -1.07348e-17)
(0.586777 -7.5481e-17 -7.14285e-18)
(0.595069 -6.26935e-17 -6.90835e-18)
(0.602951 -6.21239e-17 -1.59984e-18)
(0.610406 -6.09835e-17 -9.23223e-18)
(0.617416 -4.98185e-17 -6.59475e-19)
(0.623958 -5.3536e-17 2.75912e-18)
(0.630006 -5.97928e-17 -1.98728e-18)
(0.635531 -5.35548e-17 -1.52198e-18)
(0.640495 -4.49253e-17 -6.83388e-18)
(0.64485 -3.22212e-17 -8.84325e-18)
(0.648538 -2.46109e-17 -7.52921e-18)
(0.651483 -3.25609e-17 -3.90851e-18)
(0.653588 -2.45883e-17 -4.06788e-18)
(0.654725 -9.60842e-18 -1.47737e-17)
(0.0175351 -4.42298e-18 -1.7751e-16)
(0.0501475 -3.03129e-17 -4.51972e-16)
(0.0842323 -7.6832e-17 -6.49517e-16)
(0.118342 -1.39134e-16 -7.6734e-16)
(0.150409 -2.088e-16 -8.16829e-16)
(0.17893 -2.77071e-16 -8.14707e-16)
(0.203808 -3.38208e-16 -7.80411e-16)
(0.225761 -3.89142e-16 -7.28277e-16)
(0.245582 -4.28064e-16 -6.67228e-16)
(0.263891 -4.54408e-16 -6.02692e-16)
(0.28112 -4.68737e-16 -5.37994e-16)
(0.297563 -4.7236e-16 -4.75682e-16)
(0.313418 -4.67158e-16 -4.16787e-16)
(0.328819 -4.55799e-16 -3.62838e-16)
(0.343858 -4.39221e-16 -3.14442e-16)
(0.358597 -4.1849e-16 -2.70319e-16)
(0.373078 -3.96061e-16 -2.31332e-16)
(0.387329 -3.72274e-16 -1.9847e-16)
(0.401369 -3.48527e-16 -1.71544e-16)
(0.415209 -3.25031e-16 -1.4757e-16)
(0.428853 -3.0102e-16 -1.2738e-16)
(0.442302 -2.76976e-16 -1.08278e-16)
(0.455554 -2.54241e-16 -9.18737e-17)
(0.468602 -2.34538e-16 -7.90132e-17)
(0.481439 -2.16729e-16 -6.76968e-17)
(0.494055 -2.00021e-16 -5.82564e-17)
(0.506436 -1.83964e-16 -5.02241e-17)
(0.51857 -1.67775e-16 -4.24215e-17)
(0.530443 -1.5491e-16 -3.59958e-17)
(0.542038 -1.42837e-16 -3.17678e-17)
(0.553339 -1.30282e-16 -2.69556e-17)
(0.56433 -1.20707e-16 -2.08835e-17)
(0.574993 -1.10666e-16 -2.22256e-17)
(0.585311 -1.00601e-16 -1.72983e-17)
(0.595267 -8.79132e-17 -1.84228e-17)
(0.604844 -8.00634e-17 -1.26243e-17)
(0.614023 -7.71523e-17 -8.95384e-18)
(0.622787 -6.52254e-17 -9.92819e-18)
(0.631118 -6.45294e-17 -4.96508e-18)
(0.638996 -6.25434e-17 -1.1694e-17)
(0.6464 -5.09639e-17 -1.90012e-18)
(0.653307 -5.54239e-17 2.23904e-18)
(0.659689 -6.11596e-17 -2.5524e-18)
(0.665514 -5.4996e-17 -7.11953e-19)
(0.670744 -4.66229e-17 -7.13511e-18)
(0.675328 -3.38922e-17 -8.80672e-18)
(0.679208 -2.57249e-17 -1.00351e-17)
(0.682304 -3.27347e-17 -6.58679e-18)
(0.684515 -2.52505e-17 -6.74102e-18)
(0.685709 -1.00818e-17 -1.79807e-17)
(0.0189618 -3.4856e-18 -1.54383e-16)
(0.0541223 -2.31244e-17 -3.93257e-16)
(0.0908606 -5.85105e-17 -5.66284e-16)
(0.127462 -1.06486e-16 -6.71664e-16)
(0.161561 -1.61323e-16 -7.20074e-16)
(0.19157 -2.16952e-16 -7.26116e-16)
(0.217499 -2.69431e-16 -7.05579e-16)
(0.240196 -3.15621e-16 -6.69684e-16)
(0.260548 -3.53862e-16 -6.25067e-16)
(0.279239 -3.83157e-16 -5.75442e-16)
(0.296753 -4.03003e-16 -5.23613e-16)
(0.313418 -4.13734e-16 -4.71669e-16)
(0.329462 -4.16438e-16 -4.20731e-16)
(0.345038 -4.1297e-16 -3.72427e-16)
(0.360255 -4.03244e-16 -3.27242e-16)
(0.375183 -3.88927e-16 -2.85518e-16)
(0.389874 -3.72895e-16 -2.47832e-16)
(0.40436 -3.55078e-16 -2.14977e-16)
(0.418662 -3.35932e-16 -1.86949e-16)
(0.432793 -3.15745e-16 -1.62685e-16)
(0.446757 -2.93767e-16 -1.41457e-16)
(0.460555 -2.71477e-16 -1.21594e-16)
(0.474184 -2.51455e-16 -1.02542e-16)
(0.487636 -2.33332e-16 -8.89261e-17)
(0.500902 -2.16227e-16 -7.65476e-17)
(0.513967 -2.00408e-16 -6.57412e-17)
(0.526819 -1.84618e-16 -5.71654e-17)
(0.539441 -1.6892e-16 -4.78688e-17)
(0.551815 -1.56854e-16 -3.95914e-17)
(0.563923 -1.44862e-16 -3.66756e-17)
(0.575744 -1.31718e-16 -3.03461e-17)
(0.587259 -1.22869e-16 -2.27229e-17)
(0.598447 -1.12997e-16 -2.35034e-17)
(0.609286 -1.0316e-16 -1.86738e-17)
(0.619755 -9.09102e-17 -2.09799e-17)
(0.629834 -8.16533e-17 -1.36514e-17)
(0.639501 -7.90723e-17 -1.05096e-17)
(0.648734 -6.79124e-17 -1.27057e-17)
(0.657513 -6.68425e-17 -7.20872e-18)
(0.665816 -6.39809e-17 -1.45516e-17)
(0.673617 -5.19467e-17 -3.84195e-18)
(0.680892 -5.71243e-17 1.78679e-18)
(0.687611 -6.24983e-17 -1.51226e-18)
(0.693741 -5.64461e-17 3.62977e-19)
(0.699239 -4.83671e-17 -7.13233e-18)
(0.704057 -3.57043e-17 -8.28216e-18)
(0.708131 -2.71092e-17 -1.1663e-17)
(0.71138 -3.29974e-17 -8.97344e-18)
(0.713699 -2.59077e-17 -1.02864e-17)
(0.714951 -1.05889e-17 -2.32202e-17)
(0.0203507 -2.77109e-18 -1.35526e-16)
(0.0579779 -1.79619e-17 -3.45353e-16)
(0.0972813 -4.53195e-17 -4.97944e-16)
(0.136274 -8.28082e-17 -5.91973e-16)
(0.172312 -1.26273e-16 -6.37731e-16)
(0.203746 -1.71648e-16 -6.48378e-16)
(0.230701 -2.16029e-16 -6.37023e-16)
(0.254143 -2.56963e-16 -6.12832e-16)
(0.275038 -2.92651e-16 -5.8079e-16)
(0.294127 -3.22072e-16 -5.43454e-16)
(0.311933 -3.44714e-16 -5.02601e-16)
(0.328819 -3.59731e-16 -4.60063e-16)
(0.345038 -3.6777e-16 -4.16816e-16)
(0.360766 -3.70331e-16 -3.74487e-16)
(0.376124 -3.67029e-16 -3.33785e-16)
(0.391198 -3.58912e-16 -2.95754e-16)
(0.406048 -3.48248e-16 -2.60401e-16)
(0.420711 -3.35462e-16 -2.28702e-16)
(0.435215 -3.20834e-16 -1.99769e-16)
(0.449573 -3.04315e-16 -1.74679e-16)
(0.463794 -2.85365e-16 -1.52643e-16)
(0.477878 -2.64719e-16 -1.33703e-16)
(0.491821 -2.46642e-16 -1.13743e-16)
(0.505616 -2.30969e-16 -9.9164e-17)
(0.519251 -2.14648e-16 -8.70489e-17)
(0.532712 -1.99556e-16 -7.38159e-17)
(0.545983 -1.84439e-16 -6.20638e-17)
(0.559046 -1.69179e-16 -5.33796e-17)
(0.571879 -1.58456e-16 -4.39283e-17)
(0.584462 -1.46988e-16 -4.19602e-17)
(0.596771 -1.32738e-16 -3.43909e-17)
(0.608782 -1.24175e-16 -2.68075e-17)
(0.620471 -1.15161e-16 -2.2499e-17)
(0.631812 -1.06057e-16 -2.13478e-17)
(0.642782 -9.35722e-17 -2.3903e-17)
(0.653353 -8.32178e-17 -1.55775e-17)
(0.663502 -8.11025e-17 -1.15277e-17)
(0.673203 -7.04047e-17 -1.42322e-17)
(0.682431 -6.9345e-17 -8.65589e-18)
(0.69116 -6.56824e-17 -1.63959e-17)
(0.699362 -5.26457e-17 -5.34256e-18)
(0.707011 -5.84335e-17 -1.84522e-19)
(0.714073 -6.37184e-17 4.63293e-19)
(0.720513 -5.80724e-17 2.77019e-19)
(0.726287 -5.01852e-17 -9.38182e-18)
(0.731343 -3.7589e-17 -9.17972e-18)
(0.735615 -2.85033e-17 -1.2392e-17)
(0.739021 -3.33405e-17 -1.0244e-17)
(0.741451 -2.68578e-17 -1.36341e-17)
(0.742762 -1.12855e-17 -2.73848e-17)
(0.021703 -2.29173e-18 -1.19837e-16)
(0.0617194 -1.43775e-17 -3.05529e-16)
(0.103504 -3.61186e-17 -4.40801e-16)
(0.144797 -6.57983e-17 -5.24584e-16)
(0.182689 -1.00485e-16 -5.67057e-16)
(0.215497 -1.37332e-16 -5.80048e-16)
(0.243463 -1.74499e-16 -5.74815e-16)
(0.267656 -2.09992e-16 -5.58936e-16)
(0.289114 -2.42213e-16 -5.36227e-16)
(0.308622 -2.70081e-16 -5.08674e-16)
(0.32674 -2.93081e-16 -4.77367e-16)
(0.343858 -3.10474e-16 -4.43196e-16)
(0.360255 -3.2244e-16 -4.07493e-16)
(0.376124 -3.29699e-16 -3.71348e-16)
(0.391605 -3.31392e-16 -3.35635e-16)
(0.406797 -3.28302e-16 -3.01319e-16)
(0.421768 -3.226e-16 -2.68454e-16)
(0.436565 -3.13965e-16 -2.38393e-16)
(0.451221 -3.03089e-16 -2.0966e-16)
(0.465755 -2.90634e-16 -1.8446e-16)
(0.480177 -2.7546e-16 -1.6193e-16)
(0.494489 -2.57169e-16 -1.42695e-16)
(0.50869 -2.41036e-16 -1.24699e-16)
(0.522771 -2.27912e-16 -1.09535e-16)
(0.53672 -2.12043e-16 -9.62683e-17)
(0.550524 -1.96482e-16 -8.23404e-17)
(0.564165 -1.83164e-16 -6.7429e-17)
(0.577621 -1.69484e-16 -6.00118e-17)
(0.59087 -1.59591e-16 -5.1614e-17)
(0.603889 -1.48445e-16 -4.72878e-17)
(0.616651 -1.33568e-16 -3.80044e-17)
(0.629129 -1.24645e-16 -3.17916e-17)
(0.641295 -1.16717e-16 -2.2862e-17)
(0.653119 -1.09523e-16 -2.25674e-17)
(0.664573 -9.61725e-17 -2.52996e-17)
(0.675627 -8.44207e-17 -1.84269e-17)
(0.686252 -8.27934e-17 -1.32549e-17)
(0.696417 -7.29301e-17 -1.58094e-17)
(0.706094 -7.17473e-17 -1.03453e-17)
(0.715252 -6.73138e-17 -1.61003e-17)
(0.723862 -5.36256e-17 -5.56967e-18)
(0.73189 -5.94679e-17 -1.87405e-18)
(0.739303 -6.47644e-17 2.16064e-18)
(0.74606 -6.01685e-17 -1.56594e-18)
(0.752117 -5.21162e-17 -1.32408e-17)
(0.757418 -3.92011e-17 -1.31235e-17)
(0.761896 -2.98366e-17 -8.69059e-18)
(0.765463 -3.38481e-17 -1.49595e-17)
(0.768007 -2.78068e-17 -1.72417e-17)
(0.769379 -1.19305e-17 -2.64092e-17)
(0.0230205 -1.84003e-18 -1.06683e-16)
(0.0653532 -1.13624e-17 -2.72086e-16)
(0.109541 -2.86881e-17 -3.92532e-16)
(0.15305 -5.27112e-17 -4.67208e-16)
(0.192723 -8.11496e-17 -5.05989e-16)
(0.226861 -1.11302e-16 -5.19838e-16)
(0.255823 -1.42022e-16 -5.18799e-16)
(0.280777 -1.72266e-16 -5.08933e-16)
(0.302818 -2.00779e-16 -4.93313e-16)
(0.322772 -2.26665e-16 -4.73285e-16)
(0.341226 -2.48985e-16 -4.49874e-16)
(0.358597 -2.66995e-16 -4.23528e-16)
(0.375183 -2.80905e-16 -3.9461e-16)
(0.391198 -2.91093e-16 -3.6391e-16)
(0.406797 -2.96741e-16 -3.32888e-16)
(0.42209 -2.97683e-16 -3.02147e-16)
(0.437159 -2.95965e-16 -2.72474e-16)
(0.452059 -2.9112e-16 -2.44132e-16)
(0.46683 -2.83969e-16 -2.17256e-16)
(0.481496 -2.75252e-16 -1.93149e-16)
(0.496072 -2.63458e-16 -1.70954e-16)
(0.510563 -2.48853e-16 -1.51542e-16)
(0.52497 -2.35036e-16 -1.34959e-16)
(0.539285 -2.2281e-16 -1.19156e-16)
(0.553498 -2.08163e-16 -1.04953e-16)
(0.567593 -1.92947e-16 -9.13488e-17)
(0.581554 -1.81159e-16 -7.48223e-17)
(0.595357 -1.69917e-16 -6.69593e-17)
(0.60898 -1.59966e-16 -5.94903e-17)
(0.622395 -1.48426e-16 -5.17341e-17)
(0.635574 -1.34087e-16 -4.19215e-17)
(0.648488 -1.24834e-16 -3.49832e-17)
(0.661103 -1.17408e-16 -2.54389e-17)
(0.673389 -1.12279e-16 -2.21682e-17)
(0.68531 -9.8919e-17 -2.48223e-17)
(0.696834 -8.61566e-17 -2.41657e-17)
(0.707926 -8.44723e-17 -1.88602e-17)
(0.718552 -7.5115e-17 -1.7484e-17)
(0.728678 -7.38648e-17 -1.22111e-17)
(0.738268 -6.88827e-17 -1.75202e-17)
(0.74729 -5.46318e-17 -4.14723e-18)