/*--------------------------------*- C++ -*----------------------------------*\
| =========                 |                                                 |
| \\      /  F ield         | OpenFOAM: The Open Source CFD Toolbox           |
|  \\    /   O peration     | Version:  v1912                                 |
|   \\  /    A nd           | Website:  www.openfoam.com                      |
|    \\/     M anipulation  |                                                 |
\*---------------------------------------------------------------------------*/
FoamFile
{
    version     2.0;
    format      ascii;
    class       volScalarField;
    location    "10000";
    object      k;
}
// * * * * * * * * * * * * * * * * * * * * * * * * * * * * * * * * * * * * * //

dimensions      [0 2 -2 0 0 0 0];


internalField   nonuniform List<scalar> 
71770
(
0.000507822
0.000536622
0.000592786
0.000715223
0.000800183
0.000798252
0.000800967
0.000798294
0.000763569
0.000720283
0.000893447
0.00131369
0.000497688
0.000521734
0.000502915
4.66668
3.67433
0.000295156
0.00140551
0.015175
0.00508192
9.83956e-05
9.59983e-05
0.0400477
0.905944
0.459056
1.62959
0.216979
0.0964517
2.60403
0.000295294
0.0014091
0.00509566
0.0152164
8.24153
6.71557
6.20225
6.30235
6.83511
7.25791
7.60377
6.90583
7.33461
7.68874
7.73064
6.37176
7.903
7.99527
8.05046
4.70314
3.69947
5.54086
4.73781
5.58407
5.62546
6.25633
6.78072
7.1935
7.53101
4.77816
5.69869
4.85811
7.36612
6.93365
6.40503
7.2885
0.461453
0.910824
1.63887
1.65505
0.920794
2.62007
2.64267
2.67988
8.27242
8.21396
8.17347
8.15914
3.72784
3.76812
3.85244
8.32955
7.3155
6.89169
7.68377
6.88397
7.27581
8.0165
7.95291
7.62508
7.6019
7.90537
7.61953
7.88895
7.90603
0.22589
1.74724
0.00512187
0.0407479
0.0981307
0.100472
0.237095
0.500022
0.98078
0.0417275
2.75943
0.00141627
0.00030034
9.7166e-05
0.00143375
0.00518496
0.0154829
0.000308129
0.00146854
0.00531013
0.0158562
5.75608
5.06516
4.96762
4.11267
4.23786
4.00451
6.93795
5.19542
5.82594
6.41605
5.94498
6.50815
1.03422
1.82507
2.85024
1.89129
2.92587
3.02548
1.9673
0.252397
0.530545
0.0438511
0.105548
0.0467806
0.112529
1.07997
1.12804
3.13139
3.93798
2.04447
1.1758
0.000101689
0.00011067
0.00154389
0.0055815
0.0166654
0.000324815
0.000128983
0.00595664
0.000369538
0.0062748
0.00173709
0.000142029
0.00164854
0.000349348
0.0177831
0.0492698
0.0187317
0.124135
0.118473
0.265464
0.556681
0.278092
0.582696
0.129723
0.290543
0.608365
0.00181963
0.00657444
0.0516254
0.0196269
0.000143527
0.000385877
0.000402197
0.000145618
0.00190136
0.0539536
0.0558117
0.134189
0.00687097
0.0205124
0.0071074
0.0212187
0.00196648
0.000415052
7.02896
6.62383
7.14102
5.31941
5.4286
4.3486
6.0715
6.1934
6.74756
7.34452
7.43171
4.43794
3.28679
0.667656
0.739363
2.23628
1.28941
1.41463
2.10793
0.300513
0.629007
1.21452
3.22084
0.000146648
0.641135
1.23865
2.15072
0.306156
0.136666
0.318823
0.0568328
0.0216052
0.00723643
0.00014283
0.000420976
0.00200166
0.0591798
0.142314
0.0661243
0.354928
0.158835
0.00753475
0.022497
0.00208339
0.000138874
0.000435885
7.35934
6.96968
7.83759
7.63014
7.68154
7.18866
5.61828
6.68977
6.40477
7.27494
6.61112
5.8864
5.84601
4.59814
8.15304
7.95743
2.42115
0.793408
2.51464
1.49686
3.4113
3.64099
3.71048
4.8516
4.86829
7.61718
7.93372
8.17384
7.94468
8.2009
7.59459
6.4198
7.105
8.37404
0.38405
1.8492
4.31439
3.0208
0.998302
0.487777
5.48867
0.0251484
0.00842446
0.000166874
0.000490246
0.00233039
0.000545221
0.000226609
0.172567
0.0719645
0.0273877
0.0919165
0.220062
0.00917797
0.00254244
0.0350011
0.0117306
0.218098
0.466827
0.096948
0.22072
0.47731
0.939759
1.68427
0.0402538
0.0152947
6.38435
4.92591
5.74649
7.67278
8.02958
8.31732
9.54631e-05
0.000296557
0.00140826
6.11644
6.72981
5.33301
4.3464
0.0446074
0.0149881
0.00417081
0.000941471
0.000573746
0.276126
0.116568
1.18245
0.599243
2.0793
3.20388
0.00369227
0.00324702
0.000688088
0.000253988
24.1206
26.4705
18.1992
27.93
26.4598
10.5082
21.9793
27.7513
29.4463
25.2749
27.7021
10.8229
18.9775
29.1888
30.3544
29.9394
26.6745
28.8368
25.7955
10.9374
12.2761
21.3115
29.6637
31.1912
30.9081
26.9892
29.2778
26.3531
25.7779
11.0227
13.973
26.8023
31.1394
31.4716
31.3086
30.2126
30.9665
28.1091
28.7848
30.026
27.5445
26.3884
25.6767
14.3712
29.0459
31.1076
31.2449
30.8984
31.0764
30.5654
30.7717
29.079
30.2088
28.1794
27.36
26.1894
25.5799
12.7653
23.995
31.6315
31.6291
30.379
30.5267
30.0959
30.4485
30.5084
29.5299
30.0054
30.3309
28.1207
27.6
27.0886
26.0794
25.6627
12.491
26.4145
31.3556
30.8537
28.7912
29.7918
28.2542
30.3628
29.7638
30.0882
29.2353
30.1071
30.2713
28.8774
28.6347
27.2142
26.1901
25.6809
18.8687
10.4033
26.1277
32.359
29.2372
31.3816
26.8946
28.0375
26.5213
30.1371
29.0999
29.4966
29.5167
30.1807
30.2009
29.1675
27.7838
27.15
26.3443
25.7939
18.3585
10.0504
30.939
28.1023
29.7572
24.8038
26.6476
24.5506
29.7437
27.7907
29.1685
30.147
30.101
29.3402
28.7313
27.4819
26.3171
26.3539
26.1844
24.3603
13.5571
31.3936
25.8155
28.7599
22.6733
24.2318
26.8533
24.9989
24.1299
22.9244
29.4302
27.1837
28.0464
30.1011
30.2009
29.8761
29.8785
29.0109
28.2797
27.0969
26.7648
25.9429
21.0427
30.3669
12.8425
30.0583
23.8342
25.2335
20.6926
21.5002
25.2929
24.1724
21.9882
21.3904
28.5001
26.0243
27.6586
30.1071
30.0289
29.8514
29.5409
28.9135
28.0452
27.6821
26.5941
26.2398
15.0491
27.3991
33.0904
29.0462
21.5449
23.7447
20.0656
18.8278
25.0422
22.8447
21.3605
19.139
27.9221
25.7738
26.6829
29.8329
30.0609
29.6863
29.3299
28.539
28.2545
27.5503
26.8621
26.2149
12.1909
26.8747
30.6199
25.8154
19.0806
20.6115
17.8991
16.936
23.9699
22.7267
19.7986
17.6821
26.6038
28.3163
24.7302
29.7849
29.9719
29.7947
29.1336
29.2516
29.0758
28.7875
28.1823
27.833
26.8689
26.4958
17.4968
29.5277
30.9257
24.1444
16.9245
18.4192
18.6778
14.6874
23.9525
21.769
19.4797
18.3736
15.5892
25.7488
27.7803
24.628
29.9825
29.9934
29.6892
28.5085
29.7575
29.252
28.8503
28.2658
28.0463
27.1346
26.4245
16.1386
30.3233
27.3159
20.5737
14.3944
15.3022
15.843
13.1507
13.942
23.1774
22.1277
20.3212
17.7861
17.0929
14.6868
25.7487
26.8095
23.4355
29.8858
29.4662
29.7793
28.649
29.8109
29.6689
29.3744
29.0946
28.6795
28.1333
27.0446
26.4917
23.5857
11.2734
28.5404
26.045
18.1911
13.4811
12.3344
10.519
11.1566
20.8743
19.7116
17.2442
15.878
13.3333
24.4225
26.7748
23.3012
29.4177
29.678
27.9194
29.7879
29.6734
29.3048
28.6805
29.2441
28.3234
27.8722
27.1132
26.6945
23.7464
10.8812
28.4648
21.0291
13.7422
10.5912
8.92461
9.38636
8.644
10.4911
20.7083
18.7546
17.9252
15.907
14.8073
11.9242
13.5215
24.0348
26.184
21.7723
28.9752
29.7469
28.0688
29.6853
29.6115
29.3242
29.5602
28.7937
28.0819
27.894
27.2912
26.7315
16.9836
28.0867
8.09916
22.3791
18.4148
11.5107
8.54702
5.85036
6.87159
6.2603
8.41621
18.9956
16.7736
14.9526
15.6424
10.3103
12.6698
22.4361
24.6677
25.4812
26.8341
21.494
28.8887
29.6499
27.5237
29.7124
29.3003
29.4573
29.6389
29.2377
28.5211
28.3078
28.0594
27.0455
18.3881
26.1217
5.47034
19.0622
13.976
6.68632
5.17265
2.87651
4.72789
5.59079
5.99567
4.70835
6.86978
8.58036
18.3709
16.8447
13.4225
14.4616
10.9175
21.8477
24.0847
25.1063
26.4884
20.1627
28.1551
29.4006
29.3905
29.458
29.515
29.6435
29.4606
28.758
28.4031
28.2914
27.4687
26.942
15.4876
27.3232
8.26383
18.9559
11.8279
10.3441
6.14447
3.19188
1.3087
1.95624
3.69598
4.04485
2.69748
5.27296
7.12328
18.8479
16.1028
13.1765
14.5562
10.1237
20.2511
22.8888
25.3928
26.7587
28.0103
29.1106
29.3693
29.3351
29.5299
29.1823
28.9224
28.2332
28.9314
27.4134
27.4034
26.9776
17.3928
24.3245
23.0917
6.81352
12.0475
8.12086
3.54656
1.69412
0.537708
1.22557
2.36291
3.15299
3.68408
5.48226
7.27923
17.4531
16.5057
11.7309
13.5322
8.62542
19.7668
22.6581
24.9023
26.196
27.5537
28.478
29.1754
29.3713
29.3592
29.2832
28.6291
29.3327
28.2017
27.9706
27.4197
27.221
12.9167
25.8424
21.5932
8.77773
10.7375
4.16502
1.2101
3.01949
0.741113
0.327702
0.543141
0.330566
1.17543
1.59731
2.54499
3.97312
6.49986
17.5564
15.6953
11.6449
13.9511
8.18809
20.2606
18.3733
23.7422
21.2563
25.6101
26.638
27.405
27.9651
28.7287
29.281
29.4088
29.3004
28.9406
29.3838
28.3308
28.0643
27.6988
27.2649
18.7155
23.8817
15.2801
6.07594
4.79368
2.36528
0.365702
1.10659
0.462875
0.263113
0.310651
0.251627
0.655244
1.15411
1.56363
2.76313
4.14479
5.06541
16.117
10.1506
12.8487
8.44552
18.2988
23.4025
21.2573
25.3863
26.1761
28.0875
28.4965
28.8148
29.2292
29.2485
28.9627
29.2404
29.2628
28.7627
28.4847
28.2923
27.738
27.4255
18.4285
23.866
11.7235
5.97996
5.93762
1.72048
0.581956
0.221569
0.30387
0.310628
0.273871
0.321385
0.380097
0.547232
0.839681
1.94252
3.415
4.90607
15.6892
10.1986
11.226
13.9963
7.38444
17.7365
22.3273
24.4067
20.4255
26.4698
27.4849
27.7241
28.4725
28.7849
29.1869
28.9189
28.8779
28.5342
28.4129
28.2886
27.9154
27.6489
12.1015
22.0817
16.0598
2.69315
0.52251
0.288459
0.252754
0.290881
0.31823
0.330577
0.317796
0.314062
0.41665
0.482751
1.09366
2.3325
3.87859
5.71271
16.4355
8.6122
10.3981
13.6679
18.0146
22.1785
24.1634
19.0024
21.0956
25.9563
27.3528
27.739
28.5185
28.8535
29.1194
29.1258
28.8711
28.7455
28.5426
28.5162
28.099
27.6294
12.3036
22.6601
14.8253
7.31794
0.678474
0.27114
0.149352
0.236545
0.321855
0.270383
0.326753
0.324871
0.327091
0.304632
0.296784
0.374095
0.671831
1.67656
3.72217
4.97873
15.4773
8.49625
10.8867
12.7062
16.2286
22.9945
25.0552
18.4273
20.7598
26.5063
27.1686
27.8902
28.5584
28.9101
29.0463
28.9036
28.7793
28.5605
28.0506
27.7764
7.222
18.3612
18.8266
5.91045
0.388198
0.268025
0.261414
0.272315
0.285672
0.319499
0.313502
0.310025
0.321111
0.257003
0.285842
0.297128
0.440929
0.881301
2.20566
5.31303
7.27191
10.0213
12.8859
16.1455
22.9637
24.8902
19.3993
17.4178
21.8887
25.9902
26.3203
27.2362
27.6302
28.597
28.016
28.7219
29.0508
29.0264
28.7022
28.9404
28.5698
28.1805
27.7924
6.71775
19.2548
19.7702
13.3349
1.99668
0.299109
0.00707082
0.249906
0.263639
0.303345
0.194271
0.346175
0.256657
0.255006
0.315224
0.214664
0.334072
0.280513
0.356747
0.411698
1.89132
4.38294
7.44083
8.60231
11.5371
13.8418
15.1781
24.2668
18.7451
17.3755
21.9579
25.7045
26.1478
26.5688
28.1878
27.6759
28.8363
28.2399
28.9694
28.8832
28.9931
28.7557
28.5684
28.149
27.9623
9.64203
16.7276
13.3531
1.44827
0.250205
0.189889
0.234659
0.232118
0.165067
0.174832
0.323783
0.232073
0.216769
0.29774
0.15619
0.348043
0.33711
0.285221
0.40126
0.485806
0.861933
2.54589
3.3493
5.84876
8.71798
11.6358
13.066
16.126
24.6041
19.2343
23.0937
20.8621
25.888
26.1299
26.8536
28.4227
28.024
28.8225
28.8876
28.816
28.6937
28.9143
28.5826
28.2969
27.9653
6.64402
17.655
6.90614
16.6103
0.292738
0.235104
0.158228
0.178096
0.183352
0.117799
0.117582
0.299465
0.168682
0.165374
0.236011
0.124147
0.325219
0.347211
0.276266
0.399265
0.515196
0.894963
2.05008
3.23613
5.31111
7.59096
10.8507
13.3377
15.9776
24.0753
18.4456
22.6654
21.4404
24.77
25.2358
26.5703
28.4073
27.2573
28.7394
28.6591
28.8621
28.967
28.7875
28.6874
28.2674
28.0453
10.8855
8.52203
14.8933
0.236071
0.150252
0.0976368
0.121757
0.113222
0.0924196
0.100215
0.295254
0.144894
0.130039
0.190439
0.101876
0.302024
0.338685
0.343392
0.282321
0.298782
0.325746
1.40227
0.605428
3.55275
5.76735
7.91548
11.7304
14.5866
17.0562
19.3786
23.4811
20.9423
24.5094
24.816
25.3949
27.7183
27.0059
28.4082
28.1983
28.8742
28.836
28.8268
28.7191
28.254
28.3283
28.1969
9.4354
5.50789
15.2055
0.200084
1.20026
0.188794
0.0838397
0.0899939
0.107583
0.0782279
0.0814718
0.0882979
0.241547
0.111237
0.11357
0.144526
0.0923826
0.312444
0.243731
0.356065
0.339502
0.288503
0.293803
0.405359
0.293
1.41063
0.801956
2.73183
4.84225
9.35598
5.94594
11.3515
14.7935
16.5196
18.7351
23.4634
21.5853
25.0972
27.558
26.0048
27.9415
28.43
28.7966
28.6027
28.9398
28.9525
28.6377
28.6399
28.4985
28.2233
11.8165
4.41852
8.74995
15.2029
0.125294
0.226153
0.168026
0.0720031
0.0759765
0.0717359
0.0626541
0.0723321
0.0719673
0.0763671
0.103528
0.101706
0.133457
0.0846631
0.26331
0.224094
0.347365
0.320222
0.305346
0.318502
0.29044
1.81114
0.658463
3.62794
8.85833
5.76752
12.4339
14.1297
17.3572
19.6326
22.7684
20.9038
23.9816
26.5347
25.8417
27.2828
27.9839
28.7616
28.0126
28.8013
28.9302
28.8029
28.7867
28.4687
28.2796
10.9945
3.00788
5.54832
13.3571
0.0909771
0.857894
0.181979
0.109014
0.0552942
0.0668732
0.0565532
0.0519019
0.0532505
0.0535191
0.0683416
0.0952026
0.0970166
0.107245
0.14382
0.0724411
0.0848523
0.258932
0.164559
0.36318
0.325119
0.299767
0.295622
0.373058
1.52222
0.809697
3.17765
7.0574
10.6661
3.9822
11.9867
14.8486
17.1606
18.8938
22.983
21.7976
23.5536
26.3179
25.0575
27.2841
28.5383
27.5621
28.5362
28.9278
28.863
28.7829
28.5071
28.5216
28.3984
10.5286
5.57962
7.82384
12.5509
0.0818103
0.189156
0.075521
0.0421416
0.0503148
0.0435544
0.0374116
0.0458388
0.0438137
0.0533177
0.09038
0.0935292
0.103514
0.113625
0.0627134
0.0735503
0.199271
0.156522
0.35315
0.298323
0.311301
0.29976
0.264173
1.92013
0.478669
6.85079
10.8434
3.67877
13.6645
16.3157
19.4135
21.9303
24.0251
25.1664
26.9912
27.8996
27.5055
28.1871
28.9018
28.8608
28.9592
28.8576
28.7922
28.6837
28.4891
0.000291019
6.55852
5.19463
11.8487
0.610954
0.120292
0.0530856
0.0305485
0.0381846
0.0349734
0.0370353
0.0277116
0.0344697
0.0311961
0.0452608
0.0852107
0.0874487
0.0949679
0.109059
0.0505348
0.0653502
0.0741945
0.196878
0.121141
0.360288
0.238959
0.32753
0.311598
0.219417
1.60936
0.581501
8.29645
4.99575
12.7773
9.87444
2.40079
13.9608
16.7244
18.254
21.0102
0.000356097
23.0019
24.9684
26.4007
27.6211
26.5118
28.2662
28.6796
28.8482
28.9204
28.8774
28.8982
28.6277
0.000253996
5.11116
7.08943
6.98235
11.5316
0.132755
0.117722
0.0428313
0.0233289
0.030122
0.0247447
0.0251398
0.0208231
0.0302133
0.0319049
0.0253872
0.0372602
0.080638
0.0933596
0.0998385
0.0447931
0.0516087
0.0708506
0.146911
0.121511
0.357333
0.221001
0.312613
0.297393
0.239115
1.05138
0.26371
7.83733
4.97715
13.2021
10.7618
2.41515
15.5487
18.635
21.4928
23.5104
25.6514
26.1738
27.0672
26.2507
27.6493
28.1435
28.7083
29.0101
28.9183
28.9827
28.7777
28.6974
4.1849
5.43562
10.4716
0.0811102
0.0717374
0.098419
0.0366187
0.0301512
0.0181326
0.021093
0.0184939
0.019881
0.016459
0.022933
0.0253244
0.0205609
0.0330033
0.0831707
0.0941062
0.0373849
0.0475972
0.0623559
0.146334
0.105875
0.362842
0.17282
0.269649
0.370814
0.259296
1.07413
0.352209
6.58286
9.57199
3.6568
12.1476
14.5317
1.59345
15.8106
17.317
20.354
23.138
25.1977
27.0851
25.5726
27.7202
27.6888
28.2118
28.8247
28.8955
29.0286
28.8286
28.8709
28.742
5.62934
6.46525
9.64813
0.094976
0.0343969
0.106785
0.0468681
0.023665
0.0218246
0.0163974
0.0173804
0.0147696
0.0138342
0.0135682
0.0201398
0.0215725
0.0260724
0.08296
0.0956139
0.036392
0.0498137
0.0612113
0.118193
0.0984012
0.360182
0.171069
0.26204
0.344439
0.245647
0.618868
0.181788
6.38191
10.1863
4.23207
12.8953
14.6639
1.60626
17.3744
20.7643
24.2069
21.8415
26.6005
25.4182
24.8324
27.4245
27.718
27.968
28.7253
28.8566
28.9317
28.9405
28.9792
28.8644
28.8046
4.40365
3.57902
10.0303
0.0417043
0.0913671
0.0304609
0.0189822
0.0150884
0.0128796
0.0126504
0.0127572
0.0108852
0.0118785
0.0159069
0.0181179
0.0232173
0.0766163
0.0916386
0.0323765
0.0397593
0.0475293
0.0677579
0.114956
0.0950645
0.344319
0.131214
0.207314
0.298799
0.373713
0.298256
0.636231
0.228561
7.56278
9.68864
12.4443
3.49718
15.9156
1.00803
2.06282
18.2707
20.2086
24.0253
21.4132
26.7835
25.7172
24.3998
26.891
27.2699
28.3812
28.6155
28.5963
28.9663
28.9616
28.9752
28.9311
1.54725
5.8958
2.89683
9.22555
7.03753
0.0209515
0.0386434
0.0909755
0.0213643
0.0124283
0.012659
0.0104874
0.0102091
0.010065
0.00809633
0.012076
0.00986981
0.0138675
0.0192575
0.0147782
0.0241054
0.0811479
0.0347722
0.0278259
0.0402367
0.045256
0.0636128
0.101691
0.0949869
0.360809
0.129027
0.206734
0.266309
0.373092
0.254758
0.25692
7.50213
10.9636
13.8531
3.92955
16.0667
0.906336
1.71573
19.4635
17.4373
22.7932
21.6547
26.4468
25.1173
23.7716
26.6514
27.142
28.2803
28.4018
28.3545
28.9626
28.9992
29.0163
29.1136
29.0142
1.32977
3.72496
3.3923
9.21074
6.2241
0.00383289
0.0199056
0.114509
0.0178529
0.00987794
0.0114097
0.00733313
0.00894081
0.0076952
0.00720431
0.00658367
0.0093416
0.0122037
0.0164401
0.0129967
0.0204556
0.073549
0.0279991
0.031501
0.0560486
0.0361969
0.0993735
0.0891608
0.352539
0.143191
0.113763
0.17071
0.268283
0.363038
0.266065
0.37898
6.61273
10.0013
13.142
15.6065
2.32281
4.84012
1.23938
19.8316
18.1302
22.881
20.7524
25.6187
24.1938
23.7716
25.5056
27.8157
26.5076
27.7548
27.6936
28.6394
28.9471
28.9684
29.133
29.0739
29.0203
0.538266
4.35848
1.71544
7.26272
7.73975
2.80227
0.0577801
0.0457463
0.0190574
0.0118293
0.00696745
0.00924948
0.00599304
0.00663496
0.00584034
0.0052568
0.00519565
0.00853047
0.0110266
0.0138981
0.0178788
0.0115318
0.0229705
0.0732466
0.0274405
0.0308726
0.0579406
0.0350313
0.0920646
0.103503
0.0801919
0.308032
0.380972
0.123044
0.19237
0.288958
0.266187
7.91716
10.9692
14.4723
16.6657
2.10175
4.40108
1.28442
19.342
17.6085
22.2835
21.1075
25.1198
23.5792
22.7108
25.1156
25.6478
26.6843
27.2817
27.2462
27.317
28.4946
28.8025
29.0024
28.782
29.0899
29.1125
29.1258
0.372501
2.31232
5.3209
8.1477
2.47714
0.0509722
0.03207
0.0144941
0.0096474
0.005641
0.00822484
0.00441518
0.00559875
0.00445658
0.00414084
0.00409732
0.00657794
0.00907791
0.0126429
0.0166481
0.0105756
0.0223061
0.0254071
0.0562286
0.0283056
0.0382023
0.0899694
0.0979998
0.074128
0.298324
0.374515
0.122359
0.177415
0.278711
0.309683
7.24086
10.0033
13.5104
16.2836
2.76336
5.54332
1.11435
20.1407
18.2404
23.9281
22.3935
24.0255
24.9312
26.2812
26.5764
27.4205
26.6584
28.1124
28.8313
28.5493
29.0475
29.0417
29.1363
29.1848
0.026465
2.58138
4.84939
6.00824
6.41472
0.842329
0.037715
0.0198066
0.0128199
0.00706343
0.00413739
0.00629545
0.00364675
0.00444855
0.00385015
0.00318453
0.00314211
0.0054829
0.00777305
0.0113247
0.0137528
0.0184416
0.00869546
0.0246518
0.0454182
0.066083
0.0272847
0.0319154
0.0822209
0.10279
0.322214
0.270211
0.370052
0.365539
0.137181
0.205175
0.293422
0.4402
8.1334
11.3335
14.4521
17.4293
2.72505
5.15699
1.60374
20.262
19.3934
23.2751
21.4739
23.9138
25.3689
25.99
26.7526
28.1213
28.4885
28.8472
28.8343
29.0607
29.2686
29.2428
0.0427204
1.19129
1.8902
6.37292
5.0559
0.0410549
0.0150622
0.00810229
0.00574102
0.00324782
0.00562628
0.00280069
0.00409412
0.00334464
0.00258498
0.0026584
0.00445178
0.00645213
0.0105885
0.012883
0.0173019
0.00776309
0.0195347
0.047802
0.061713
0.0234896
0.0326583
0.0790045
0.0987094
0.28784
0.363834
0.368637
0.134223
0.163763
0.257283
0.405432
6.61555
9.88388
13.051
15.8496
17.7903
2.11316
4.31845
1.57985
19.9742
22.0709
21.3396
23.3189
24.8278
26.0758
25.2808
26.9781
27.7284
27.9035
28.722
28.828
28.9965
29.2754
29.386
29.3082
0.0114464
1.37711
1.05643
5.6709
4.74858
1.81834
0.0241377
0.00982935
0.00709704
0.00390162
0.00242522
0.00483945
0.00237238
0.00334755
0.00273649
0.00218575
0.00214042
0.00397367
0.00575898
0.0115806
0.00871545
0.0139229
0.00623238
0.0190191
0.0399477
0.065474
0.0236794
0.0277513
0.0817661
0.0912513
0.106273
0.284356
0.376676
0.341705
0.343955
0.121489
0.172414
0.264788
0.629443
6.68392
10.3783
14.0122
15.7401
17.2482
19.375
2.73486
4.35794
1.41531
2.26666
21.4961
23.6615
22.1066
25.3873
24.7789
26.4559
27.7558
28.209
28.5664
28.6015
28.9571
29.3477
29.369
29.362
0.00826866
1.31684
5.72518
4.02585
0.870895
0.0230948
0.0073208
0.00503941
0.00333633
0.00206125
0.0042093
0.00488217
0.00195952
0.00304803
0.00222426
0.00200921
0.00189923
0.00193427
0.0032988
0.0109753
0.00810409
0.0124186
0.00576466
0.0158437
0.0437859
0.0573038
0.0203977
0.0280821
0.074864
0.0907541
0.0974971
0.203501
0.372426
0.341246
0.342474
0.136066
0.249888
0.488111
5.11005
7.61995
9.24516
11.9522
13.6425
16.9537
18.5092
19.9806
2.04628
2.83286
23.0677
21.1607
25.4891
23.6759
26.9151
28.0029
28.6047
28.9963
29.2373
29.4332
29.4021
0.0173074
0.0252314
0.558451
5.03261
3.07281
0.609204
0.0111425
0.00534507
0.00356193
0.00219559
0.00161769
0.00187419
0.00372113
0.00427383
0.00163988
0.00247203
0.00204949
0.00166274
0.00189182
0.0016155
0.0015659
0.0029469
0.00929229
0.00661614
0.012258
0.00483395
0.0170069
0.0134706
0.0390032
0.0646478
0.0221786
0.0322164
0.0828557
0.096428
0.193215
0.383136
0.305028
0.339651
0.138781
0.289587
0.71796
4.57085
7.20006
10.4443
11.887
15.0149
18.2446
17.0475
19.3784
2.28427
21.8326
20.0058
24.9635
23.2246
26.7536
27.4078
28.2293
28.6171
28.9522
29.1469
29.4576
29.4772
0.0214127
0.139532
4.7336
3.34392
0.00791484
0.00428505
0.00282562
0.00211934
0.00132208
0.00144911
0.00326868
0.00424746
0.0014127
0.00225385
0.00190791
0.00145466
0.00158825
0.00146255
0.00244254
0.00882133
0.00614482
0.010027
0.00484552
0.0141355
0.0124336
0.0457088
0.0596387
0.0217283
0.0320835
0.0833719
0.104234
0.208875
0.370744
0.260001
0.320881
0.277459
0.389295
0.118332
0.53402
1.30983
5.57686
8.61606
10.2072
13.2235
14.5296
16.4411
19.2582
18.6624
3.90296
21.1702
25.2362
23.9103
21.9544
26.1079
27.3857
27.7381
28.2205
28.6097
28.8813
28.9072
29.1496
29.4386
29.4575
0.015506
0.0213424
1.38161
4.35006
2.47964
0.00435474
0.00766708
0.00292593
0.00172746
0.00110505
0.00123451
0.0030913
0.00355564
0.00118507
0.00200952
0.00164029
0.00122364
0.00151739
0.00128824
0.00228511
0.00681768
0.00957699
0.00409315
0.0138498
0.0111497
0.040447
0.0672059
0.0179515
0.0273691
0.0804654
0.0972142
0.166696
0.379452
0.30313
0.301384
0.290848
0.380773
0.131519
0.753427
1.88357
5.42917
8.72423
11.648
13.12
16.1586
17.3227
19.3048
19.4271
4.26241
20.0551
24.352
23.1545
21.8418
26.1735
26.9677
27.1251
27.7972
28.0374
28.3978
28.3452
29.0843
29.5241
29.5572
0.0107766
0.00146415
0.769321
4.72149
2.66603
0.00333734
0.00465347
0.00234111
0.00130145
0.00176684
0.00106659
0.000963178
0.000972266
0.0025229
0.0034454
0.00105732
0.00189224
0.0014741
0.00109959
0.00118152
0.00130217
0.00119833
0.00206924
0.00640322
0.00771664
0.00417042
0.0112686
0.0146764
0.0456035
0.0613043
0.0192741
0.0282101
0.0863356
0.105006
0.1828
0.351198
0.256867
0.570863
0.232858
0.360394
0.389968
0.117596
1.30418
3.22424
7.46952
11.1498
14.539
16.3994
18.8001
19.4859
6.05583
23.543
24.2064
21.2155
25.4592
27.2079
27.698
27.9206
28.0741
28.8154
29.2646
29.4981
29.5184
0.0091037
0.0420094
0.0091406
1.93531
0.258331
4.54188
3.54727
1.07806
0.00288627
0.00237694
0.00520021
0.00111273
0.00151369
0.000890949
0.000820178
0.000839576
0.002392
0.0026233
0.000902533
0.00164588
0.00126479
0.00148592
0.000930672
0.000998079
0.00100064
0.00205389
0.00527498
0.00744466
0.0033494
0.0104434
0.0130166
0.0424201
0.0706516
0.0163011
0.0231774
0.0344753
0.0821778
0.101046
0.141573
0.350004
0.303808
0.941914
0.250534
0.363968
0.378768
1.73537
3.80581
7.792
11.9606
14.5883
18.0215
19.4828
20.1698
6.61809
23.2196
24.454
21.6766
25.5008
26.7866
26.9999
27.2905
27.4184
28.2683
28.8902
29.1717
29.5419
29.6108
0.00102822
0.00848963
1.69766
0.0475113
4.7119
3.73897
1.00331
0.00215858
0.00188362
0.00461355
0.000876403
0.00119126
0.00153972
0.000858382
0.000821105
0.000737779
0.00079533
0.000719606
0.00241323
0.000844822
0.00159245
0.00115516
0.00125064
0.000913596
0.000946329
0.00188183
0.00520768
0.0060771
0.00839655
0.0027576
0.00370559
0.0115467
0.0138228
0.0519987
0.0664871
0.0172018
0.0245705
0.0351256
0.0895156
0.108382
0.151533
0.309374
0.246696
0.534207
1.07082
0.199207
0.33499
0.39186
0.333153
2.88825
5.07619
9.92203
11.3787
13.5022
15.9182
17.9848
19.1659
19.7054
8.75001
22.5506
23.7864
20.9123
26.1659
24.3086
26.5158
26.6362
27.0976
26.8123
28.0146
28.3733
28.7529
29.1513
29.5075
29.5488
0.00861109
0.00716902
3.85654
0.707689
2.42929
0.0018124
0.00309727
0.000788309
0.00108659
0.00128954
0.000733577
0.000728129
0.000675017
0.00068108
0.000640791
0.00196408
0.00247747
0.000760822
0.00138349
0.00102207
0.00122421
0.000795599
0.000848343
0.00439063
0.0056886
0.00825356
0.00249458
0.00322317
0.0103596
0.0122049
0.0506182
0.0765305
0.0204825
0.015101
0.0300467
0.0412972
0.0857006
0.129464
0.101286
0.329565
0.728573
1.93
0.232929
0.351041
0.383652
0.324711
3.55114
5.23741
10.1839
13.2495
14.1027
15.336
17.3945
19.1799
20.1062
9.48919
22.7351
21.0779
25.8102
24.1505
26.0189
26.2905
26.1199
26.9139
27.5376
28.3158
28.7265
29.0287
29.5542
29.6526
0.00225826
0.00957942
3.65528
0.538281
2.69833
0.00174997
0.00127512
0.00239198
0.000894017
0.000675316
0.000696257
0.000605119
0.000622207
0.000633768
0.000582151
0.00175668
0.00201543
0.000731328
0.00134736
0.000945702
0.00108233
0.000763638
0.00080049
0.000844481
0.00442201
0.0061328
0.00486684
0.00716828
0.00202568
0.00268169
0.0036334
0.0108385
0.0128291
0.060023
0.0721401
0.0222888
0.0162201
0.0310955
0.0421216
0.092004
0.139812
0.114958
0.341062
1.27204
2.20372
3.30695
0.32207
0.20748
0.398955
0.333725
5.99574
11.9952
13.3753
15.9733
18.5442
19.3938
20.0348
8.37391
12.0982
22.0389
24.9904
23.2513
25.0319
25.4777
26.329
27.2896
27.672
28.1959
28.5187
29.2255
29.5262
29.5795
0.00846018
0.00577136
3.63264
0.0483523
1.79171
1.74771
0.00129456
0.00100673
0.00147558
0.000819793
0.000624351
0.000622828
0.000567391
0.000559455
0.000564121
0.000541591
0.00146414
0.000651269
0.00112393
0.000982387
0.00069762
0.000711728
0.000803691
0.00541437
0.0046263
0.00790679
0.00171502
0.00253408
0.00346692
0.00990647
0.0110918
0.0594034
0.0808541
0.0277887
0.0197622
0.0152147
0.0359324
0.0503462
0.0893562
0.166571
0.119474
0.371895
1.63316
3.27046
4.89357
0.358034
0.252066
0.393563
0.325098
12.5518
14.7782
17.6509
18.6134
20.4881
21.1524
9.41545
13.4219
22.2021
24.6226
23.3614
24.2381
25.5991
24.5191
26.4854
27.592
28.0419
28.6005
29.081
29.5475
29.6834
0.00133265
0.00449719
3.57354
0.752012
1.78538
2.15149
0.00100533
0.00124787
0.00161475
0.000691996
0.000553507
0.000614549
0.000573595
0.000535915
0.000526859
0.000534903
0.000519725
0.0013549
0.000628177
0.00104779
0.000892128
0.000640873
0.00069247
0.000828801
0.000720843
0.00560691
0.0038694
0.0070187
0.00175959
0.00143595
0.00217564
0.00310577
0.0110972
0.0739792
0.0304335
0.0224829
0.0169454
0.0129656
0.0368002
0.0526764
0.0956648
0.169698
0.141872
0.108792
0.28363
0.602605
3.03763
1.19262
4.84352
3.51249
0.330357
0.395787
0.223003
0.357065
14.622
18.302
19.9238
20.8493
21.3163
11.5681
7.87425
13.1026
15.3034
22.6679
23.0418
25.284
23.5965
25.9507
27.1245
27.3354
28.0969
28.6077
28.9776
29.4946
29.5827
0.00456832
0.00244971
3.12501
0.528102
1.42276
0.000871793
0.00100777
0.000929156
0.000636251
0.000522725
0.000521063
0.000575915
0.000525407
0.000497266
0.000489601
0.0004895
0.000494151
0.00111209
0.000578103
0.000912835
0.000601434
0.000630151
0.000762607
0.000693858
0.00492219
0.0036928
0.00766629
0.00144505
0.0019441
0.00126648
0.00244959
0.00307378
0.00954108
0.0755996
0.0285816
0.0201361
0.0150464
0.0128041
0.0423342
0.0652027
0.0944237
0.149782
0.124639
0.315716
0.683215
3.31491
2.0692
5.98022
5.04398
0.372177
0.393456
0.237362
0.340165
16.0773
19.3068
17.7205
20.1319
22.0897
12.063
9.11024
15.11
16.5909
24.6108
22.4165
23.7984
25.9127
26.4096
26.9061
28.1973
27.633
28.5137
28.8586
29.5444
29.6803
0.00600349
0.175939
0.000112147
2.84913
1.45763
1.80683
0.000713875
0.00100015
0.00180803
0.000552537
0.000484267
0.000480358
0.000532118
0.000494462
0.000488243
0.000479714
0.000472556
0.00047071
0.00102784
0.000544957
0.00084104
0.000558996
0.000595221
0.000766063
0.000640998
0.0038689
0.00537746
0.00670027
0.00144906
0.00174919
0.00113023
0.00229449
0.0107059
0.0827049
0.0313268
0.0225649
0.0153448
0.0435284
0.0684748
0.0890133
0.107716
0.184376
0.129691
0.390105
0.29647
1.11626
4.35026
1.98552
6.40912
0.387313
0.361553
0.303906
19.9457
18.4197
21.3526
11.0026
13.7699
8.7541
15.0867
16.3442
17.9579
24.3536
23.3905
24.7403
26.1027
27.0345
27.6578
27.2591
27.6961
28.4294
29.1559
29.4895
29.5801
0.0998003
0.000393925
2.89164
1.01787
0.971203
0.000633679
0.000781602
0.000978881
0.000517668
0.000469024
0.000456003
0.000496825
0.000469969
0.000458557
0.00044782
0.000457019
0.000449876
0.000911789
0.000508857
0.000851581
0.000540982
0.000556068
0.000606297
0.000716988
0.000647626
0.00342296
0.00482353
0.00716455
0.00122838
0.0018139
0.00105577
0.00239067
0.0102772
0.0797887
0.0287525
0.0363386
0.0209693
0.0171104
0.0137168
0.0542207
0.0661165
0.0949553
0.110434
0.201469
0.169316
0.522303
0.316513
1.10887
6.06283
4.2508
3.00328
8.20446
0.381276
0.409916
0.320179
19.6011
21.3682
11.7527
14.1352
10.7392
16.3853
18.0314
18.6117
22.4563
24.4624
25.3661
26.2538
26.483
27.4629
28.5757
27.7648
29.0001
29.495
29.6755
0.0293085
0.261238
0.000411174
2.57267
1.31925
1.2532
0.000553719
0.000730915
0.00079751
0.00087332
0.000468586
0.000440836
0.000434425
0.000474802
0.000444533
0.000440299
0.000434379
0.000440133
0.000433766
0.000905407
0.00048653
0.000747698
0.000500616
0.000532102
0.000553824
0.000597495
0.00277488
0.00394619
0.00571174
0.00827207
0.00131428
0.00108713
0.00165353
0.00196524
0.011659
0.086202
0.0324583
0.0420851
0.0237985
0.0171363
0.0149893
0.0540316
0.0769847
0.092484
0.119976
0.276443
0.188596
0.39205
0.306028
1.51625
7.59261
5.39947
3.29029
9.57375
0.384194
0.401042
0.40189
20.1213
13.1691
15.5322
11.7409
17.871
18.6774
19.3213
22.3456
23.4526
25.3391
26.1915
26.7489
27.7803
27.3807
28.3952
28.9268
29.5703
29.7607
0.027527
0.0963359
0.00112783
2.57414
2.33917
0.785573
0.8098
0.000514408
0.000577637
0.00072464
0.000846868
0.000449177
0.000414917
0.000459433
0.000423556
0.000423235
0.000417229
0.00042265
0.000412609
0.000827468
0.00047191
0.000722659
0.000492291
0.00054607
0.00060413
0.00272644
0.00359782
0.00571647
0.00835308
0.00110856
0.00153316
0.00100693
0.00177562
0.00207267
0.0102583
0.0842638
0.0292068
0.0397626
0.0204279
0.015389
0.0649549
0.0763204
0.0971518
0.109406
0.153136
0.317177
0.26602
0.591495
0.313682
2.7986
1.26962
7.70204
9.22179
4.85416
7.11654
11.4137
0.343185
0.385849
0.402856
21.3071
13.3535
16.0526
18.8351
18.6966
19.6845
23.3976
24.5017
25.3028
26.2366
27.7819
26.6262
28.2945
28.7277
29.2026
29.5506
29.6658
0.00981595
0.16097
0.000150006
1.38965
2.31437
1.01908
0.000467334
0.000586027
0.000721718
0.00081858
0.000420162
0.000407154
0.000398688
0.000434432
0.000426615
0.000411161
0.0004096
0.000408929
0.00041041
0.000401123
0.000868132
0.00075933
0.000458248
0.000657017
0.000471833
0.000507147
0.00056248
0.00246349
0.00390152