/*--------------------------------*- C++ -*----------------------------------*\
| =========                 |                                                 |
| \\      /  F ield         | OpenFOAM: The Open Source CFD Toolbox           |
|  \\    /   O peration     | Version:  v1912                                 |
|   \\  /    A nd           | Website:  www.openfoam.com                      |
|    \\/     M anipulation  |                                                 |
\*---------------------------------------------------------------------------*/
FoamFile
{
    version     2.0;
    format      ascii;
    class       volScalarField;
    location    "10000";
    object      nut;
}
// * * * * * * * * * * * * * * * * * * * * * * * * * * * * * * * * * * * * * //

dimensions      [0 2 -1 0 0 0 0];


internalField   nonuniform List<scalar> 
71770
(
3.42558e-13
3.6198e-13
3.9986e-13
4.82462e-13
5.39788e-13
5.38486e-13
5.40318e-13
5.38514e-13
5.15084e-13
4.85835e-13
6.02617e-13
8.86153e-13
3.35726e-13
3.51951e-13
3.39255e-13
2.58077e-05
1.54599e-05
4.41571e-12
5.37641e-11
2.3959e-09
4.17128e-10
4.22752e-13
4.1245e-13
1.12924e-08
1.547e-06
5.38721e-07
3.86101e-06
1.66204e-07
4.59259e-08
8.28595e-06
4.41774e-12
5.39014e-11
4.18262e-10
2.40258e-09
0.000268904
8.18849e-05
5.84579e-05
6.01888e-05
8.41638e-05
0.000114446
0.000152652
8.62949e-05
0.000117351
0.000156379
0.000161142
6.16662e-05
0.000200962
0.000205472
0.000211786
2.61005e-05
1.56369e-05
4.01715e-05
2.6455e-05
4.07314e-05
4.13549e-05
5.92386e-05
8.28332e-05
0.00011275
0.000150696
2.68375e-05
4.23336e-05
2.74676e-05
0.000120721
8.85181e-05
6.30351e-05
0.000118464
5.42185e-07
1.55871e-06
3.89603e-06
3.94132e-06
1.5768e-06
8.37325e-06
8.47391e-06
8.60036e-06
0.000282362
0.000281128
0.000278016
0.000272787
1.58366e-05
1.60609e-05
1.64598e-05
0.000280762
0.00012168
8.86798e-05
0.000163309
8.73577e-05
0.000120382
0.000215495
0.00021569
0.000162506
0.000160306
0.000213699
0.000157704
0.000210588
0.000206237
1.72995e-07
4.14249e-06
4.20412e-10
1.14906e-08
4.67352e-08
4.7832e-08
1.81272e-07
5.85156e-07
1.67056e-06
1.17648e-08
8.84416e-06
5.4175e-11
4.49312e-12
4.17458e-13
5.48432e-11
4.25585e-10
2.44469e-09
4.60957e-12
5.61726e-11
4.35846e-10
2.50345e-09
4.28334e-05
2.75364e-05
2.77469e-05
1.67512e-05
1.69881e-05
1.67198e-05
8.60217e-05
2.76627e-05
4.22405e-05
6.17844e-05
4.20606e-05
6.10898e-05
1.74412e-06
4.28049e-06
9.05814e-06
4.35504e-06
9.10884e-06
9.23044e-06
4.46418e-06
1.92183e-07
6.16482e-07
1.23596e-08
5.02083e-08
1.31747e-08
5.34237e-08
1.79619e-06
1.85888e-06
9.44711e-06
1.67694e-05
4.60559e-06
1.92929e-06
4.36883e-13
4.75461e-13
5.9054e-11
4.58102e-10
2.63092e-09
4.85913e-12
5.54152e-13
4.88863e-10
5.52846e-12
5.14941e-10
6.64449e-11
6.1022e-13
6.30573e-11
5.22626e-12
2.80661e-09
1.38638e-08
2.95547e-09
5.87536e-08
5.61243e-08
2.01186e-07
6.41195e-07
2.1028e-07
6.67843e-07
6.13767e-08
2.19483e-07
6.95734e-07
6.96017e-11
5.39517e-10
1.4522e-08
3.09641e-09
6.16656e-13
5.77289e-12
6.01706e-12
6.25641e-13
7.27281e-11
1.51752e-08
1.56964e-08
6.34734e-08
5.63846e-10
3.23601e-09
5.83244e-10
3.34734e-09
7.52187e-11
6.20936e-12
8.50483e-05
6.07706e-05
8.40828e-05
2.79149e-05
2.81206e-05
1.72553e-05
4.2142e-05
4.22087e-05
6.04734e-05
0.000116663
0.000114708
1.74651e-05
9.8039e-06
7.64983e-07
8.44915e-07
5.03299e-06
2.11855e-06
2.32316e-06
4.7277e-06
2.26871e-07
7.18332e-07
1.98754e-06
9.65104e-06
6.30067e-13
7.32336e-07
2.02611e-06
4.81414e-06
2.31205e-07
6.46594e-08
2.41209e-07
1.59852e-08
3.40842e-09
5.93833e-10
6.13656e-13
6.29792e-12
7.65635e-11
1.66511e-08
6.73917e-08
1.8594e-08
2.67909e-07
7.51161e-08
6.18282e-10
3.54936e-09
7.96824e-11
5.96597e-13
6.52028e-12
8.4876e-05
6.16029e-05
0.000153434
0.000114754
9.05906e-05
6.78314e-05
2.90814e-05
4.67205e-05
4.33532e-05
6.61512e-05
4.74346e-05
3.13908e-05
3.15794e-05
1.81574e-05
0.000160924
0.000121477
5.48001e-06
8.89778e-07
5.55997e-06
2.39994e-06
1.023e-05
1.10819e-05
1.11177e-05
1.96208e-05
1.96386e-05
9.36467e-05
0.000126195
0.000167448
0.000100827
0.000135365
7.3313e-05
3.47504e-05
5.15999e-05
0.000220195
2.86501e-07
2.92646e-06
1.2779e-05
6.58539e-06
1.10956e-06
3.62216e-07
2.20092e-05
3.9668e-09
6.91237e-10
7.16863e-13
7.33323e-12
8.91262e-11
8.15632e-12
9.73571e-13
8.1117e-08
2.01836e-08
4.3161e-09
2.57682e-08
1.03264e-07
7.52906e-10
9.72387e-11
5.51578e-09
9.62353e-10
1.67158e-07
5.48578e-07
4.61735e-08
1.69165e-07
5.60197e-07
1.6069e-06
4.00737e-06
1.13515e-08
2.41501e-09
6.28052e-05
2.79461e-05
4.3138e-05
0.000154542
0.00020372
0.00021178
4.10147e-13
4.43659e-12
9.49938e-13
3.59945e-05
5.38092e-05
2.27355e-05
1.32709e-05
7.00863e-09
1.22867e-09
1.59518e-10
1.40853e-11
2.46505e-12
1.27425e-07
3.24175e-08
1.27174e-06
4.33068e-07
3.20847e-06
6.97126e-06
2.49061e-12
1.24189e-10
1.02936e-11
1.09119e-12
0.0088424
0.00798837
0.00342748
0.00860851
0.00766486
0.000939163
0.0053523
0.00812045
0.00969635
0.00703604
0.00838784
0.000966504
0.00379611
0.00921541
0.0101969
0.00996638
0.00791252
0.00914101
0.00748278
0.000962443
0.00124426
0.00589059
0.00948331
0.0112659
0.0108408
0.00807028
0.00960339
0.00780237
0.00749004
0.00107571
0.00180393
0.0083727
0.010731
0.0115445
0.011867
0.0107123
0.0115103
0.00864414
0.00921269
0.0103565
0.00844786
0.00780398
0.00740887
0.00194588
0.01009
0.0107358
0.0123899
0.0116954
0.0124292
0.0113991
0.0118637
0.00945009
0.0106487
0.00885392
0.00834686
0.00767697
0.00734037
0.00205861
0.00615342
0.0113469
0.0122867
0.012926
0.0124816
0.0128686
0.0115711
0.0122948
0.00980484
0.0103091
0.0112119
0.0088084
0.00854398
0.00823806
0.00764631
0.00740232
0.00194689
0.00786097
0.0109306
0.0128059
0.0135398
0.0128497
0.0134568
0.012025
0.0127279
0.0123159
0.0096349
0.0105111
0.0113376
0.0092915
0.00917328
0.00828951
0.00769412
0.00739698
0.00397272
0.00224975
0.00843945
0.0123936
0.0135215
0.0129999
0.0139743
0.0133511
0.0138141
0.0121145
0.0130301
0.0126969
0.00991834
0.0109027
0.0117747
0.00965212
0.00861153
0.00823811
0.00778965
0.0074111
0.00399808
0.00211195
0.0113837
0.0140708
0.0137166
0.0142093
0.0136329
0.014053
0.0124659
0.0132499
0.0127469
0.0109441
0.0118015
0.0096925
0.00917586
0.00838813
0.00773509
0.00777434
0.00760318
0.00710852
0.00279647
0.0125099
0.0143554
0.0140134
0.0142323
0.0142795
0.0134415
0.0138798
0.0139695
0.014153
0.012483
0.013251
0.0130099
0.0106403
0.0114677
0.0121486
0.010175
0.0094804
0.00885517
0.00812748
0.00791524
0.00744031
0.00598917
0.0117868
0.00262598
0.0138426
0.014486
0.0144755
0.0141593
0.0142628
0.0136857
0.0138785
0.0140619
0.014141
0.012759
0.0134956
0.0130249
0.0108559
0.011557
0.0120235
0.00999264
0.00937278
0.00872023
0.00845063
0.00783123
0.00758568
0.00332931
0.00999389
0.0148599
0.0142373
0.0143979
0.0146269
0.0141634
0.0139462
0.0136459
0.013976
0.0140272
0.0139275
0.012815
0.0134662
0.0132741
0.010407
0.0112535
0.0121404
0.00980285
0.00908357
0.00888321
0.00840286
0.00793455
0.00755191
0.00262254
0.0103195
0.0145559
0.0146889
0.0141282
0.0144764
0.0138476
0.0136243
0.0137593
0.0139092
0.0139265
0.0136868
0.0131874
0.0126867
0.0135889
0.0103324
0.0113338
0.0117807
0.0124474
0.00978615
0.00955411
0.00936624
0.00884476
0.00858222
0.00795759
0.00769043
0.0046823
0.0131492
0.0149658
0.0148052
0.0137015
0.0140764
0.0142323
0.0130152
0.0136983
0.0139563
0.0138281
0.0137604
0.0132299
0.0133334
0.0128152
0.0135365
0.0106016
0.0110385
0.0118217
0.0124646
0.0103412
0.00976221
0.0093775
0.00893108
0.00871009
0.00805244
0.0075964
0.00437136
0.0145149
0.0150899
0.0145792
0.01298
0.0133261
0.0135588
0.0125074
0.0127292
0.0137698
0.0138713
0.0138942
0.0136063
0.0135289
0.0129451
0.0132616
0.0130023
0.0136646
0.0111233
0.0120442
0.0113963
0.0123826
0.0105892
0.0103511
0.00982402
0.00962016
0.00923492
0.00875927
0.00796337
0.00761035
0.00851877
0.00338832
0.015403
0.0152263
0.0142066
0.0127161
0.0123093
0.0113252
0.0115863
0.013864
0.0138099
0.0134937
0.0132681
0.0124818
0.0135016
0.0129303
0.0136594
0.011902
0.0113622
0.0125821
0.0105471
0.010242
0.00994121
0.00923938
0.00984038
0.00889687
0.00849669
0.00799352
0.00770369
0.00921014
0.00324045
0.016343
0.0147956
0.0129032
0.0114194
0.0105421
0.0106815
0.0102777
0.0112323
0.0138011
0.0136922
0.0135907
0.0132116
0.012942
0.0119102
0.01252
0.013508
0.0130874
0.0137926
0.0121203
0.0110939
0.0124782
0.0105863
0.0105061
0.00987602
0.01033
0.0093013
0.00871835
0.0085487
0.00806298
0.00766946
0.00570069
0.0140182
0.00303131
0.0154401
0.0143025
0.0120275
0.0102844
0.00835904
0.00900831
0.00855935
0.0100281
0.0136754
0.0133663
0.0129612
0.0131118
0.0111083
0.0121864
0.013685
0.013405
0.0132463
0.0128128
0.0137407
0.0120138
0.0111358
0.0126582
0.0109043
0.0100089
0.0102735
0.0107745
0.00979411
0.00911952
0.008957
0.00863287
0.00783437
0.00674557
0.0126196
0.00287202
0.0147618
0.013083
0.00910483
0.0076734
0.00520406
0.00735618
0.00798954
0.00830131
0.00723549
0.00897686
0.0101164
0.0135798
0.0133454
0.0124545
0.0127764
0.0113981
0.0136564
0.0134717
0.0132246
0.0128364
0.0137285
0.0123456
0.0115836
0.0114596
0.0105998
0.0106743
0.0110192
0.010096
0.00931077
0.00898696
0.00890678
0.00815674
0.00771672
0.00571131
0.0148694
0.0037793
0.0148933
0.0122613
0.0114847
0.00865387
0.00562583
0.00291103
0.00397603
0.00610392
0.00645412
0.00495691
0.00765419
0.00911661
0.0136136
0.0131812
0.0123442
0.0127779
0.0109756
0.0136728
0.0135751
0.0131325
0.0127315
0.0123073
0.0117519
0.0109214
0.0113499
0.0104816
0.00974135
0.00951271
0.00879217
0.00950246
0.00809608
0.00801098
0.00768134
0.00672898
0.011811
0.0154693
0.0033008
0.0125017
0.0102368
0.00620724
0.00350126
0.00140359
0.00283983
0.00449797
0.00548699
0.00606184
0.00783412
0.00921812
0.0134093
0.0132446
0.0117489
0.0124356
0.010106
0.0136371
0.0135394
0.0132246
0.0128816
0.0124801
0.0120935
0.0114108
0.0108286
0.0105788
0.00991596
0.00912374
0.00988023
0.00874218
0.00847864
0.00801269
0.00782438
0.00489529
0.0138375
0.0158055
0.00366139
0.0118882
0.00689165
0.00277276
0.00558177
0.00183731
0.000971473
0.00144369
0.000967826
0.00261848
0.00335469
0.00464889
0.00635859
0.00862715
0.0133937
0.0130485
0.0116843
0.0125514
0.00981767
0.0136253
0.0135038
0.0134144
0.0136184
0.0130232
0.0126828
0.0124258
0.0121479
0.0117289
0.011108
0.0103858
0.0108111
0.0095207
0.0102382
0.00885269
0.00854547
0.0081349
0.00779221
0.0083072
0.0153454
0.0139937
0.00336983
0.00774351
0.00476428
0.00100109
0.00265376
0.00124106
0.000856764
0.000955814
0.000828263
0.00164198
0.00258718
0.00326606
0.00494038
0.0065345
0.00740052
0.0131198
0.0109533
0.0121589
0.00997058
0.0134469
0.0133919
0.0135787
0.0130214
0.0127333
0.0120923
0.0117047
0.0114696
0.010593
0.0109009
0.00967853
0.0102431
0.0105814
0.00940254
0.00898303
0.0086319
0.00813476
0.00786758
0.00831066
0.0166543
0.0125256
0.00324432
0.00883375
0.00373063
0.00152485
0.000706401
0.000917948
0.00110235
0.000880825
0.00117487
0.00105578
0.00141504
0.00198676
0.00379035
0.00574524
0.00725382
0.013008
0.0109594
0.0114594
0.0125409
0.00924774
0.0133549
0.013508
0.0132233
0.0135831
0.0126338
0.0123297
0.0121244
0.0115908
0.0113199
0.0105652
0.0110656
0.0094999
0.00899072
0.00882558
0.00864803
0.00824727
0.00797305
0.0057916
0.012489
0.0145782
0.00525384
0.00153836
0.000896671
0.000900679
0.000896786
0.00118237
0.00123367
0.00113125
0.00128641
0.00115699
0.00127891
0.0024658
0.00435205
0.00625166
0.00794312
0.013161
0.0100496
0.0110343
0.0124093
0.013372
0.0134638
0.0131949
0.0134852
0.0135285
0.012747
0.0122336
0.0120298
0.0114493
0.0110577
0.010479
0.00999197
0.00942134
0.0092807
0.00898356
0.0089043
0.00829466
0.00786765
0.00579839
0.0132949
0.01448
0.0103708
0.00194034
0.000884767
0.000521062
0.000851704
0.00132754
0.000895221
0.00133903
0.00133184
0.00121484
0.00133893
0.000943756
0.00104493
0.00165167
0.0033829
0.00607873
0.00729825
0.0129319
0.00996458
0.0112619
0.0120525
0.013068
0.0133686
0.0130064
0.0133948
0.0135011
0.012521
0.0121932
0.0118298
0.0113522
0.0109116
0.00993424
0.00943259
0.00930839
0.00886996
0.0082388
0.00795005
0.00442929
0.00950028
0.0144551
0.00920648
0.00122421
0.00110012
0.00103791
0.0011122
0.00129178
0.00113782
0.00133731
0.00133541
0.00132709
0.00121113
0.000946502
0.00093914
0.00118788
0.00206588
0.00418309
0.007595
0.00914205
0.0108148
0.0121001
0.0130328
0.0133177
0.0129736
0.0134785
0.0132488
0.0134213
0.0126237
0.0124953
0.0121223
0.0118641
0.0112004
0.0116861
0.0109216
0.010362
0.00980871
0.00923402
0.00975826
0.00888955
0.00824605
0.00786774
0.00411651
0.0110278
0.0146522
0.0133481
0.00483501
0.00120319
2.43257e-05
0.00110326
0.00117164
0.00137833
0.00101483
0.00131212
0.00120555
0.00120044
0.0013462
0.00107761
0.00122501
0.0009462
0.00100789
0.00108032
0.00372198
0.00669855
0.00924717
0.00999543
0.0115426
0.0124303
0.0128178
0.0130984
0.0133823
0.0132144
0.0133795
0.0126742
0.0124727
0.0122695
0.0114632
0.0117981
0.0108112
0.0113553
0.0102352
0.00980201
0.0100312
0.00922035
0.00873656
0.00820831
0.00797913
0.00552022
0.00963379
0.0138055
0.00372658
0.000986302
0.0010068
0.00117842
0.00116409
0.000902417
0.000943683
0.00133131
0.00113604
0.00108447
0.00132953
0.000865964
0.00134642
0.00123878
0.000905578
0.00108896
0.00125935
0.00199891
0.00459589
0.00557982
0.00802412
0.0100491
0.0115682
0.0121398
0.0130001
0.0129749
0.0134025
0.0132423
0.0134665
0.0125221
0.0123858
0.0120855
0.0111565
0.0115128
0.0106725
0.00999749
0.0105479
0.00910068
0.00976282
0.00876818
0.00824888
0.00789202
0.00416697
0.0104431
0.0109679
0.012415
0.000995933
0.00106761
0.000932301
0.000993892
0.00101133
0.000742638
0.000717065
0.00131912
0.000915821
0.000896403
0.00114539
0.000748607
0.00137238
0.00131692
0.00090477
0.0011109
0.0013255
0.00206789
0.00392012
0.00545225
0.00756
0.00931681
0.0112023
0.0122204
0.0129494
0.0130846
0.01332
0.0132309
0.0133699
0.0128776
0.0127062
0.0121365
0.0111124
0.0118402
0.010557
0.0108253
0.00959668
0.0100241
0.00920187
0.00880338
0.00824716
0.00788955
0.00662865
0.0117442
0.0127385
0.00107007
0.00058643
0.000659585
0.000798745
0.000717559
0.00064637
0.000675826
0.00130681
0.000822385
0.000753974
0.000985743
0.000661494
0.00133043
0.00122199
0.00140538
0.000856191
0.00102527
0.000908808
0.00291039
0.00150559
0.00581208
0.00794008
0.00952083
0.0115864
0.0126148
0.0131431
0.0133738
0.0130916
0.0133733
0.0129009
0.012746
0.0125567
0.0115471
0.0118923
0.0108748
0.0112344
0.00964994
0.0104321
0.00923588
0.00884129
0.00820891
0.00820901
0.00798967
0.00597519
0.0100149
0.0123455
0.00108156
0.00368857
0.000929231
0.000629544
0.000633418
0.000747737
0.000596416
0.000639522
0.000653202
0.00115418
0.000701089
0.000692368
0.000815225
0.00066033
0.00134885
0.00116114
0.00134828
0.00138332
0.0008899
0.00098614
0.0010886
0.00088105
0.0029391
0.0018964
0.00480747
0.00710532
0.0103861
0.00806241
0.0114022
0.0126383
0.0130224
0.0133138
0.0130434
0.0133234
0.0126107
0.0115801
0.0123188
0.0113186
0.0108059
0.0102447
0.0105091
0.00980379
0.00914557
0.00873776
0.00873676
0.00825414
0.00790088
0.0080083
0.00401391
0.012265
0.0144114
0.000813894
0.00086795
0.000926472
0.000619285
0.000620915
0.000603467
0.000558008
0.000624031
0.000612476
0.000632265
0.000670626
0.000661912
0.000772697
0.00066309
0.00121708
0.00109713
0.00128894
0.00137222
0.00107293
0.000900261
0.000911857
0.00352737
0.00162052
0.00587097
0.0100841
0.0079115
0.0118524
0.012445
0.013153
0.0133522
0.0131424
0.0133612
0.0128762
0.0120638
0.012331
0.0116658
0.0111419
0.0103211
0.0109744
0.00991051
0.00959169
0.00918872
0.00874812
0.00823861
0.00790143
0.00760531
0.00317756
0.0104465
0.010421
0.000681849
0.00279027
0.000909152
0.000752465
0.000545587
0.000576946
0.000527604
0.000534185
0.000534415
0.000535007
0.000609769
0.000666396
0.000667007
0.000682692
0.000807513
0.00062345
0.00065928
0.00120307
0.000886831
0.00140333
0.0013678
0.00102501
0.000906211
0.00102764
0.00310529
0.00191803
0.00535182
0.00889127
0.0110566
0.0062348
0.0116574
0.0126359
0.0130968
0.0132743
0.0130743
0.0132534
0.012898
0.0120354
0.0125452
0.0115688
0.0107066
0.0112687
0.0104657
0.00970516
0.00921443
0.00878091
0.00821442
0.00819704
0.00797098
0.007212
0.00491802
0.0112243
0.0108626
0.000352637
0.00100609
0.000610813
0.000471035
0.000506862
0.000473775
0.000446373
0.000490509
0.000481676
0.000532836
0.000671348
0.000675972
0.000671452
0.000694271
0.000582255
0.000627956
0.00100455
0.000857031
0.00133634
0.00132135
0.00110873
0.00101505
0.000765388
0.00369893
0.00123849
0.00873459
0.0111237
0.00590677
0.0122821
0.0129582
0.0132827
0.0131888
0.0128017
0.0124174
0.0117352
0.0110398
0.011268
0.0107313
0.010256
0.00982897
0.00919954
0.00870689
0.00869526
0.00826574
0.00792748
3.61282e-12
0.00541249
0.0100344
0.00973337
0.00225622
0.000819428
0.000518028
0.00039563
0.000445862
0.000430803
0.000440042
0.000372178
0.000418022
0.00039493
0.000484979
0.000664753
0.000667892
0.000673041
0.000685317
0.000516434
0.000593455
0.000629201
0.000999162
0.000722704
0.00140631
0.00113535
0.00138272
0.00108248
0.000681643
0.00322551
0.00146248
0.00970364
0.00720347
0.0119559
0.0106274
0.00435049
0.0123535
0.0130045
0.0132035
0.0132704
5.04868e-12
0.013004
0.0124632
0.0120153
0.0111564
0.011815
0.0106592
0.0102551
0.00978291
0.00909502
0.00905747
0.00871703
0.00805872
2.4295e-12
0.00474881
0.010955
0.00587867
0.010864
0.000621994
0.000844373
0.000472279
0.000338272
0.000398701
0.000359102
0.000360703
0.000324238
0.000390221
0.000400761
0.00035555
0.000434911
0.000652195
0.000672011
0.000678818
0.000481428
0.000521485
0.000616701
0.000815201
0.00072706
0.00135179
0.00107712
0.00135497
0.00100545
0.000737238
0.00230781
0.000746859
0.00939743
0.00718607
0.0120897
0.0110675
0.0043753
0.0127749
0.0132005
0.0131858
0.0128458
0.0122703
0.0119829
0.0114747
0.0119165
0.0109969
0.0107074
0.0101545
0.00941704
0.00908272
0.00885175
0.00834571
0.00790317
0.0092999
0.00514644
0.00921416
0.000487677
0.000309038
0.000848506
0.000433286
0.000398064
0.000302449
0.000330414
0.00030258
0.000321029
0.000288152
0.000338353
0.000353651
0.000319
0.000407424
0.000655924
0.000671922
0.000435772
0.000499211
0.000578197
0.000816694
0.000672548
0.00145375
0.000907408
0.00122949
0.00135833
0.000842025
0.00235849
0.000963123
0.00850479
0.0104369
0.00585259
0.0116936
0.0124969
0.0031809
0.0128072
0.0130779
0.0132481
0.012898
0.0123743
0.0114111
0.0122024
0.0109175
0.010839
0.0105445
0.00981005
0.00957321
0.00923003
0.00830378
0.00814178
0.00783285
0.00995837
0.00549402
0.00980326
0.00063967
0.000191675
0.000843519
0.000510403
0.000350915
0.000337378
0.000288901
0.000297079
0.000274277
0.000267955
0.000265548
0.000316834
0.00032779
0.000360283
0.00065469
0.000673007
0.000429938
0.000511743
0.000572287
0.000713998
0.000672463
0.00141389
0.000903782
0.00120602
0.00122058
0.000779342
0.00150918
0.000548175
0.008348
0.0107459
0.00646164
0.0119537
0.0125048
0.00321225
0.013057
0.0132114
0.012616
0.0131468
0.0117009
0.0121581
0.01244
0.0111003
0.0108607
0.0106628
0.00993412
0.00961508
0.00931429
0.00899767
0.00851097
0.00808845
0.00791237
0.0097013
0.00452163
0.00979442
0.000255111
0.000812101
0.000383262
0.00031611
0.000278779
0.000259064
0.000257648
0.000258018
0.000239555
0.000250922
0.000285406
0.000301746
0.000338747
0.000639847
0.000670225
0.000400932
0.000448674
0.000496011
0.000603352
0.000706639
0.000672524
0.0014113
0.000756431
0.00102462
0.00131201
0.001361
0.00097986
0.0015516
0.000669277
0.00917567
0.0104744
0.0117669
0.00567267
0.0128089
0.00222628
0.00387044
0.0131657
0.0132235
0.0126383
0.0131187
0.0114863
0.0120458
0.0125179
0.0113512
0.0111089
0.0103308
0.0100281
0.00990735
0.0090359
0.00850716
0.00820433
0.00798141
0.00593038
0.0105813
0.00426521
0.0105718
0.00758391
0.0001598
0.00044923
0.000780342
0.000332208
0.00025659
0.000257959
0.000235484
0.00023482
0.00023326
0.000209865
0.000252756
0.000231053
0.000267793
0.000310725
0.000275853
0.000345573
0.000650471
0.000417956
0.000369001
0.000453097
0.000483201
0.00058364
0.000677859
0.000672089
0.00142253
0.000750976
0.00102503
0.00122021
0.00138332
0.000794704
0.000710468
0.00912735
0.0111074
0.0122588
0.00613035
0.0128127
0.00205957
0.00335762
0.0132332
0.0130456
0.0129241
0.0130867
0.0116434
0.012229
0.0126512
0.011436
0.0111581
0.0103767
0.0101194
0.0102275
0.00942523
0.00879915
0.00869536
0.00822102
0.00788633
0.00532934
0.00929298
0.00441785
0.00996659
0.00709433
3.1392e-05
0.000276406
0.00103645
0.000307144
0.000228443
0.00024598
0.000200124
0.000220644
0.000205226
0.00019869
0.000189875
0.000225166
0.000253384
0.000288135
0.000259895
0.0003196
0.000627852
0.000371622
0.000394108
0.000544009
0.000423807
0.000675246
0.000667497
0.00141746
0.000798984
0.000697621
0.000893206
0.00122426
0.00130615
0.000828344
0.00101259
0.00847803
0.0106208
0.0119975
0.0127082
0.00422598
0.00699798
0.00260145
0.0131944
0.0131113
0.0128488
0.0131598
0.0120125
0.0124994
0.0126131
0.0119513
0.010744
0.0114956
0.0106807
0.0106897
0.00989041
0.00918675
0.00906815
0.00864218
0.00816573
0.00796615
0.00301788
0.00981831
0.00301968
0.00799888
0.0102056
0.00426846
0.000505206
0.000548346
0.00031582
0.000251113
0.000195263
0.000223917
0.00018154
0.000190265
0.000177477
0.000169545
0.000167944
0.000215409
0.000242239
0.000267977
0.0002999
0.000247046
0.000337978
0.000624539
0.000367833
0.000391126
0.000554084
0.000417715
0.000669356
0.000680005
0.000650031
0.00133015
0.0014316
0.000729478
0.000974205
0.000965668
0.000751639
0.00937433
0.0110794
0.0124082
0.0129046
0.00392478
0.00657878
0.00269052
0.0131827
0.0130423
0.0129591
0.0131043
0.012145
0.0126066
0.0128462
0.0120763
0.0118802
0.0113494
0.0109702
0.0108823
0.0109105
0.0100124
0.00957608
0.00901417
0.0095235
0.00864299
0.00833711
0.0078544
0.00220039
0.00780949
0.00652861
0.0101368
0.00378208
0.000467954
0.000431083
0.000281844
0.000223325
0.000176583
0.000211566
0.000155198
0.000173655
0.000155055
0.000148674
0.000149426
0.000188784
0.000221801
0.000256751
0.000290098
0.000237766
0.000333541
0.000354945
0.000545138
0.000374009
0.000436328
0.000666111
0.000673468
0.000630668
0.0013043
0.00138872
0.000731407
0.000920495
0.0008778
0.000864789
0.00890769
0.0105987
0.012093
0.0128136
0.00478505
0.00758429
0.00239546
0.0131565
0.0130987
0.0125034
0.0128886
0.0124318
0.0121322
0.0115768
0.0113302
0.0107914
0.0113002
0.0103717
0.00947583
0.00991546
0.00895022
0.008865
0.00828442
0.00797602
0.000201503
0.00821862
0.00622821
0.0100374
0.00783552
0.00230471
0.000429331
0.000338813
0.000263316
0.000195688
0.000150228
0.000184395
0.000140904
0.000154397
0.000143471
0.00013154
0.000130289
0.000171404
0.000205463
0.000244935
0.000266633
0.00030403
0.00021723
0.000350327
0.000479131
0.000597144
0.000367641
0.000397286
0.000654625
0.000684907
0.00136438
0.00122448
0.00128242
0.00145039
0.000774456
0.00101584
0.000927024
0.00109434
0.00949441
0.0112282
0.0123801
0.0129888
0.00473617
0.00724914
0.00317835
0.0131328
0.013166
0.0126703
0.0130287
0.0124353
0.0119375
0.0116549
0.0111543
0.0102944
0.00986251
0.0094213
0.00933323
0.00895663
0.00820075
0.00792997
0.000358942
0.00585281
0.00387475
0.0102886
0.0067937
0.000501359
0.000288366
0.000211543
0.000175855
0.000133323
0.000173606
0.000123069
0.000148225
0.000134242
0.000118793
0.000120313
0.000154545
0.000186193
0.000237723
0.000258836
0.000295721
0.000205343
0.000312897
0.00049552
0.000574916
0.0003411
0.000403001
0.000643237
0.000675047
0.00127391
0.0012613
0.00143219
0.00076626
0.000867691
0.000750496
0.00104151
0.00842917
0.0105087
0.0119197
0.0127286
0.0130081
0.00391625
0.00646179
0.00314432
0.0131183
0.0129019
0.0130024
0.0125712
0.0120985
0.0115298
0.0119285
0.010974
0.0105847
0.0103506
0.00970043
0.00935182
0.00903291
0.00870331
0.00819328
0.00785147
0.000123622
0.00631782
0.00302712
0.00808057
0.00990549
0.00384659
0.000382712
0.000233484
0.000195821
0.000146222
0.000115019
0.000160962
0.000114097
0.000134535
0.000122264
0.000109894
0.000108899
0.000145976
0.000175606
0.000247101
0.000217324
0.000268109
0.000183208
0.000309126
0.000445063
0.000592614
0.000343119
0.000371571
0.000650592
0.000665491
0.000687661
0.00126181
0.00140453
0.0011082
0.00141441
0.000722895
0.000901799
0.000792522
0.00148278
0.00847164
0.0107434
0.0122128
0.0126668
0.0129458
0.013112
0.00473435
0.00650033
0.00288533
0.00412477
0.0129464
0.012448
0.012848
0.0118134
0.0120779
0.0112183
0.0104412
0.0101267
0.00975341
0.0095407
0.00905037
0.00862026
0.00815417
0.00793317
9.27549e-05
0.00621922
0.00789123
0.0100583
0.00326901
0.000412171
0.000195881
0.000166111
0.000135791
0.000106852
0.000150223
0.000161857
0.00010445
0.000128387
0.000110089
0.000105745
0.000102935
0.00010393
0.000133407
0.000241341
0.000209708
0.000254344
0.000175759
0.000282439
0.000471833
0.000554086
0.00031776
0.000374222
0.000634238
0.000664065
0.000670824
0.00100429
0.00138789
0.00111078
0.00139208
0.000773891
0.000689646
0.00119924
0.00717587
0.00912391
0.0101272
0.0114667
0.0120811
0.012899
0.0130624
0.0130899
0.00381072
0.00484863
0.0125867
0.0129973
0.0117368
0.0124034
0.0109246
0.0102148
0.00956981
0.00901517
0.00865703
0.00825491
0.00791287
0.000266952
0.000324156
0.00404979
0.00908795
0.00613023
0.00235638
0.000262708
0.000169922
0.000139354
0.000110857
9.54055e-05
0.000101838
0.000141102
0.000151216
9.61223e-05
0.000116118
0.000106447
9.66669e-05
0.000102771
9.53291e-05
9.3962e-05
0.000126165
0.000224101
0.000188577
0.000253206
0.000160841
0.000292627
0.000263071
0.000439522
0.000589838
0.00033243
0.000399427
0.000655484
0.000670433
0.000974333
0.00133726
0.000939147
0.00138868
0.000786911
0.000792481
0.00164036
0.00668916
0.00882401
0.0107495
0.0114163
0.0124779
0.0130214
0.0128766
0.0131018
0.00414357
0.012865
0.0130791
0.0119565
0.0125084
0.0110046
0.010554
0.00996948
0.0094648
0.00904558
0.00881508
0.00819227
0.00782311
0.000326549
0.00141208
0.00858615
0.00638397
0.00021624
0.000153556
0.000124614
0.000108287
8.65298e-05
9.04517e-05
0.000132613
0.000150974
8.92398e-05
0.000110922
0.000103107
9.05675e-05
9.4523e-05
9.07017e-05
0.000115352
0.000218632
0.000181925
0.000231964
0.000161408
0.000268307
0.000254079
0.000480395
0.00056434
0.000329027
0.00039962
0.000653663
0.000680059
0.00102411
0.00127822
0.000730546
0.00101204
0.00123664
0.00146502
0.00070783
0.00128331
0.00268384
0.00756198
0.00973955
0.0106176
0.011928
0.0123251
0.0127837
0.0130599
0.0130237
0.00598163
0.012957
0.0118199
0.0123227
0.0127982
0.011394
0.0105563
0.0103579
0.00983289
0.00942497
0.00908276
0.00904984
0.00872001
0.00814289
0.00787558
0.000257448
0.000315172
0.00633551
0.00872994
0.00587514
0.000153896
0.000212507
0.000126261
9.84861e-05
7.89838e-05
8.37869e-05
0.000129201
0.000138084
8.17621e-05
0.000105506
9.59947e-05
8.2982e-05
9.24267e-05
8.50909e-05
0.000111655
0.00019201
0.000227083
0.00014771
0.000266536
0.000242865
0.000448951
0.000600582
0.000298875
0.000367832
0.000646058
0.000668907
0.000876083
0.00133068
0.000795567
0.000914943
0.00127108
0.00143611
0.000755541
0.00169
0.0035659
0.00743877
0.00979073
0.0112819
0.0118637
0.0126981
0.012898
0.0130503
0.0130398
0.00635328
0.0130564
0.0121612
0.0125093
0.0127956
0.0112981
0.0108405
0.0106691
0.0101775
0.00990588
0.00956793
0.00955782
0.0087513
0.0081356
0.00777627
0.000237616
2.5009e-05
0.00474797
0.00876327
0.00574309
0.000134466
0.000164221
0.000113611
8.59336e-05
9.92916e-05
7.77154e-05
7.39374e-05
7.41569e-05
0.000117027
0.000136377
7.7245e-05
0.000102648
9.10741e-05
7.87792e-05
8.1606e-05
8.55667e-05
8.21194e-05
0.000106876
0.000185897
0.000204475
0.00014959
0.000244076
0.00027301
0.000482122
0.000573141
0.000310004
0.000374266
0.000658516
0.000679887
0.000933871
0.00115144
0.000713643
0.0013457
0.0010957
0.0014467
0.00137223
0.000705837
0.0026675
0.00523666
0.00899422
0.0110439
0.0123084
0.0127162
0.013031
0.0130365
0.00793554
0.0123927
0.0121439
0.0128949
0.0116418
0.0106395
0.0101813
0.00996614
0.00977739
0.00906133
0.00859371
0.00808006
0.00785515
0.000230471
0.000697608
0.000210647
0.00729361
0.00256022
0.00915999
0.00695771
0.00466569
0.000122106
0.000113887
0.000175332
7.95748e-05
9.23066e-05
7.10287e-05
6.82735e-05
6.91767e-05
0.000114225
0.000119611
7.1506e-05
9.60496e-05
8.43509e-05
9.1474e-05
7.25028e-05
7.50264e-05
7.51895e-05
0.000106568
0.000167791
0.000200969
0.000133382
0.000235668
0.000258588
0.000462017
0.000614666
0.000284631
0.000340052
0.000410763
0.000649161
0.000674673
0.000785026
0.00114818
0.000813713
0.00203879
0.00115297
0.00143436
0.00131801
0.00334086
0.00586079
0.00919713
0.0113851
0.0122981
0.0129682
0.0130215
0.0130172
0.00835796
0.0124818
0.0120656
0.0127971
0.0115552
0.0109318
0.0106837
0.0104451
0.0103052
0.00958126
0.00893564
0.00860851
0.00812245
0.00777609
2.12675e-05
0.00023421
0.00692714
0.000610871
0.00865291
0.00706502
0.00440492
0.000107705
0.0001024
0.000162541
7.06917e-05
8.22681e-05
9.28577e-05
6.98266e-05
6.83792e-05
6.50308e-05
6.73479e-05
6.42249e-05
0.000114943
6.92129e-05
9.45609e-05
8.04829e-05
8.38473e-05
7.19312e-05
7.30787e-05
0.000102268
0.000167114
0.00018077
0.000213206
0.000122038
0.000140487
0.000246031
0.000265525
0.000518498
0.000596261
0.00029293
0.000350182
0.000416474
0.000663393
0.000686332
0.000825155
0.00095574
0.000698249
0.00127683
0.00227694
0.000980394
0.00139667
0.00142568
0.0010618
0.00483234
0.0070881
0.0104318
0.011125
0.0119702
0.0126253
0.0129336
0.0130254
0.013002
0.00975769
0.0126357
0.0122963
0.012901
0.0112743
0.012075
0.0109463
0.0108835
0.0105037
0.0106784
0.00981583
0.00940247
0.00901153
0.00862679
0.00808763
0.00783609
0.000156615
0.00018243
0.00859512
0.00484618
0.00611934
0.000100229
0.000134458
6.70151e-05
7.8478e-05
8.54414e-05
6.48969e-05
6.46467e-05
6.23617e-05
6.26157e-05
6.08105e-05
0.000104434
0.000116366
6.59603e-05
8.81826e-05
7.58517e-05
8.29782e-05
6.73577e-05
6.93682e-05
0.000152692
0.000174862
0.000211429
0.000116532
0.000130941
0.000234645
0.000251445
0.000511357
0.000638077
0.000320113
0.000274349
0.000383946
0.000453104
0.000655534
0.000746117
0.000669415
0.000858943
0.00166335
0.0035514
0.0010938
0.00142063
0.00136066
0.000995693
0.00558503
0.00722816
0.0105497
0.0118577
0.0121428
0.01247
0.0128718
0.0130016
0.0129734
0.0101577
0.0125638
0.0128554
0.0113973
0.0121241
0.0112797
0.0110461
0.0111587
0.0106128
0.010219