/*--------------------------------*- C++ -*----------------------------------*\
| =========                 |                                                 |
| \\      /  F ield         | OpenFOAM: The Open Source CFD Toolbox           |
|  \\    /   O peration     | Version:  v1912                                 |
|   \\  /    A nd           | Website:  www.openfoam.com                      |
|    \\/     M anipulation  |                                                 |
\*---------------------------------------------------------------------------*/
FoamFile
{
    version     2.0;
    format      ascii;
    class       volScalarField;
    location    "10000";
    object      omega;
}
// * * * * * * * * * * * * * * * * * * * * * * * * * * * * * * * * * * * * * //

dimensions      [0 0 -1 0 0 0 0];


internalField   nonuniform List<scalar> 
71770
(
1.48244e+09
1.48247e+09
1.48248e+09
1.48245e+09
1.4824e+09
1.4824e+09
1.4824e+09
1.4824e+09
1.48242e+09
1.48257e+09
1.48261e+09
1.48246e+09
1.48242e+09
1.4824e+09
1.48241e+09
180825
237668
6.68424e+07
2.61421e+07
6.33374e+06
1.21831e+07
2.3275e+08
2.32751e+08
3.54643e+06
585615
852123
422063
1.3055e+06
2.10016e+06
314270
6.68428e+07
2.61422e+07
1.21829e+07
6.33335e+06
30648.6
82012.2
106098
104710
81211.9
63418
49811.1
80025.9
62501.7
49167.4
47974.1
103327
39325.8
38911.7
38012.2
180193
236586
137930
179089
137095
136029
105612
81859.9
63800.4
49975
178040
134614
176867
61017.6
78330.3
101610
61525
851099
584345
420651
419921
583964
312909
311860
311602
29297.2
29217.8
29399.3
29910.3
235394
234615
234051
29667.7
60121
77714.4
47050.6
78802.1
60439.5
37200.5
36872
46921.8
47421
36992.9
48315.4
37461.6
38334.8
1.30576e+06
421785
1.2183e+07
3.54621e+06
2.09971e+06
2.10052e+06
1.30795e+06
854510
587098
3.5468e+06
312006
2.61424e+07
6.68443e+07
2.32757e+08
2.61427e+07
1.21831e+07
6.3333e+06
6.68454e+07
2.61433e+07
1.21835e+07
6.33373e+06
134383
183944
179033
245515
249461
239507
80653.5
187813
137923
103846
141343
106534
592976
426370
314661
434275
321212
327772
440687
1.31331e+06
860601
3.54794e+06
2.10219e+06
3.5508e+06
2.10635e+06
601259
606839
331465
234831
443910
609448
2.3276e+08
2.32763e+08
2.61437e+07
1.2184e+07
6.33446e+06
6.68463e+07
2.32757e+08
1.21847e+07
6.68428e+07
1.21855e+07
2.61433e+07
2.3275e+08
2.61435e+07
6.68447e+07
6.33616e+06
3.55386e+06
6.33797e+06
2.1128e+06
2.11091e+06
1.3195e+06
868192
1.32249e+06
872504
2.11356e+06
1.32376e+06
874422
2.61434e+07
1.21858e+07
3.55497e+06
6.33858e+06
2.3275e+08
6.68428e+07
6.68429e+07
2.3275e+08
2.61435e+07
3.55539e+06
3.55571e+06
2.11409e+06
1.21859e+07
6.3388e+06
1.2186e+07
6.33897e+06
2.61435e+07
6.68429e+07
82646.8
108997
84928.5
190558
193047
252015
144072
146733
111579
62955.1
64788
254104
335253
872772
875073
444325
608628
608926
445867
1.3246e+06
875649
611066
333730
2.3275e+08
875465
611343
446751
1.32417e+06
2.11363e+06
1.32177e+06
3.55534e+06
6.33876e+06
1.2186e+07
2.32753e+08
6.68436e+07
2.61437e+07
3.55411e+06
2.11174e+06
3.55622e+06
1.32481e+06
2.11453e+06
1.21866e+07
6.33833e+06
2.61462e+07
2.32777e+08
6.68507e+07
86707
113139
51081.3
66491.6
84794
105978
193191
143187
147735
109974
139374
187520
185121
253238
50663.8
65505.6
441815
891691
452275
623707
333462
328552
333747
247269
247894
81339.6
62868.9
48814.1
78795.5
60583.5
103591
184740
137694
38030
1.34048e+06
631889
337616
458712
899729
1.34665e+06
249380
6.33972e+06
1.21875e+07
2.32784e+08
6.68526e+07
2.61471e+07
6.68465e+07
2.3276e+08
2.12738e+06
3.5655e+06
6.34548e+06
3.56705e+06
2.13107e+06
1.21901e+07
2.61464e+07
6.34564e+06
1.21895e+07
1.30474e+06
850976
2.09964e+06
1.30476e+06
852039
584829
420293
3.54612e+06
6.3332e+06
101653
176265
133212
49648.4
39414.7
39273.4
2.32754e+08
6.68434e+07
1.48248e+09
169927
125068
234568
327514
6.36464e+06
1.21986e+07
2.61464e+07
6.68407e+07
2.32753e+08
2.16696e+06
3.59585e+06
929792
1.38371e+06
648065
459585
1.48248e+09
2.61458e+07
6.68465e+07
2.32763e+08
2727.84
3313.62
5309.78
3244.46
3452.09
11188.9
4106.53
3417.46
3036.84
3592.21
3302.65
11198
4999.21
3167.39
2976.81
3004.04
3371.18
3154.66
3447.32
11364.2
9866.16
3617.9
3127.99
2768.65
2851.09
3344.27
3048.69
3377.58
3441.62
10246.9
7745.86
3201.15
2901.82
2726.11
2638.29
2820.37
2690.33
3251.81
3124.47
2899.23
3260.52
3381.4
3465.67
7385.43
2878.68
2897.56
2521.81
2641.92
2500.26
2681.38
2593.76
3077.12
2836.85
3182.7
3277.88
3411.42
3484.82
6200.94
3899.46
2787.67
2574.26
2350.22
2445.73
2338.7
2631.42
2481.42
3011.77
2910.56
2705.24
3192.49
3230.34
3288.23
3410.72
3466.85
6415.87
3360.2
2868.6
2409.33
2126.41
2318.49
2099.62
2524.97
2338.47
2443.04
3034.32
2864.32
2670
3107.94
3121.54
3282.97
3403.91
3471.81
4749.57
4624.23
3095.9
2610.94
2162.28
2413.98
1924.57
2100.01
1919.87
2487.69
2233.28
2323.14
2975.97
2768.19
2564.89
3021.88
3226.35
3295.66
3381.97
3480.44
4591.83
4758.83
2717.83
1997.21
2169.43
1745.6
1954.66
1747
2386.01
2097.42
2288.29
2754.63
2550.61
3027.1
3131.18
3276.29
3402.3
3389.85
3443.87
3426.92
4847.93
2509.5
1798.31
2052.31
1593.09
1696.96
1997.79
1801.09
1727.32
1619.75
2357.62
2051.44
2155.76
2828.97
2633.56
2459.22
2936.46
3060.09
3193.58
3333.99
3381.43
3486.81
3513.46
2576.35
4890.55
2171.44
1645.33
1743.19
1461.41
1507.43
1848.13
1741.72
1563.67
1512.65
2233.73
1928.36
2123.52
2773.35
2598.33
2482.76
2956.27
3084.84
3216.11
3275.74
3395.9
3459.12
4520.19
2741.59
2226.83
2040.15
1496.4
1623.36
1416.72
1350.03
1835.15
1634.57
1522.79
1374.19
2178.86
1913.96
2010.15
2866.62
2671.26
2445.24
2991.98
3141.83
3180.67
3278.68
3385.46
3471.29
4648.49
2604.27
2103.6
1757.47
1350.53
1423.79
1292.58
1243.08
1742.09
1633.94
1421.65
1291.91
2017.36
2231.97
1819.89
2882.67
2644.48
2529.11
2340.54
2989.08
3043.28
3073.54
3186.33
3243.1
3376.52
3445.29
3736.8
2245.58
2066.43
1630.8
1235.23
1308.52
1312.36
1128.48
1748.58
1559.8
1408.71
1335.25
1178.33
1931.15
2167.77
1819.39
2828.1
2717.17
2511.42
2287.15
2877.57
2996.45
3076.54
3164.88
3219.98
3369.73
3478.55
3691.89
2089.11
1810.21
1411.17
1108.96
1148.29
1168.47
1051.44
1095.27
1683.21
1595.22
1462.56
1307.2
1263.43
1134.55
1941.59
2061.9
1715.06
2686.76
2446.5
2613.08
2313.66
2815.22
2866.27
2990.05
3024.34
3105.55
3211.84
3396.13
3481.01
2768.67
3327.13
1852.92
1710.53
1280.47
1060.16
1002.04
928.814
962.911
1505.65
1427.36
1277.95
1196.7
1068.22
1808.86
2070.7
1705.87
2471.65
2611.99
2218.98
2824.27
2897.23
2947.82
3104.15
2971.85
3183.52
3280.36
3391.9
3465.15
2578.28
3357.92
1741.72
1421.31
1065.02
927.475
846.567
878.752
841.043
934.012
1500.47
1369.73
1318.93
1204.02
1144.12
1001.17
1079.99
1779.3
2000.7
1578.54
2390.63
2681.37
2249.44
2804.12
2818.51
2969.23
2861.59
3095.66
3221.02
3262.95
3384.75
3485.45
2979.22
2003.59
2671.84
1449.41
1287.52
957.039
831.067
699.884
762.806
731.399
839.265
1389.04
1254.92
1153.64
1193
928.159
1039.67
1639.46
1840.19
1923.64
2094.33
1564.26
2404.62
2662.58
2174.37
2724.83
2927.44
2867.31
2750.84
2985.24
3127.48
3160.41
3250.3
3452.16
2725.95
2069.93
1904.7
1291.32
1068.25
734.37
674.101
552.744
642.71
699.764
722.256
650.73
765.276
848.167
1352.81
1262.21
1077.72
1131.89
957.841
1599.81
1787.81
1898.46
2063.54
1468.68
2280.58
2538.13
2564.72
2779.12
2765.06
2690.18
2918.04
3088.68
3160.48
3176.39
3367.61
3491.38
2711.74
1837.55
2186.6
1272.78
964.647
900.684
710.025
567.362
449.564
492.009
605.508
626.708
544.185
688.899
781.352
1384.5
1221.65
1067.43
1139.17
922.38
1481.12
1686.09
1933.58
2101.78
2275.91
2477.1
2689.16
2584.62
2817.3
2995.72
3040.39
3211.18
3044.62
3386
3420.73
3512.09
2584.76
2059.48
1492.74
2064.2
963.667
793.3
571.358
483.861
383.095
431.564
525.329
574.629
607.75
699.792
789.666
1301.57
1246.22
998.468
1088.18
853.494
1449.49
1673.5
1883.03
2033.6
2207.82
2354.82
2556.83
2712.39
2775.29
2953.14
3137.87
2968.82
3225.93
3298.95
3422.03
3478.99
2638.59
1867.56
1366.18
2397.38
903.206
604.357
436.426
540.956
403.369
337.325
376.216
341.555
448.898
476.142
547.44
624.843
753.419
1310.79
1202.85
996.626
1111.52
834.015
1486.98
1360.6
1769.91
1560.85
1966.5
2100.33
2205.49
2302.05
2449.39
2636.04
2831.64
2710.21
3039.75
2870.02
3200.25
3284.11
3404.93
3499
2252.93
1556.28
1091.93
1803.04
619.059
496.46
365.305
416.988
372.966
307.1
325.012
303.8
399.057
446.088
478.751
559.294
634.293
684.467
1228.45
926.719
1056.74
847.043
1360.82
1747.51
1565.49
1949.57
2055.73
2322.75
2434.62
2512.27
2759.3
2683.13
2992.47
2854.64
2765.49
3059.03
3170.95
3277.64
3409.82
3485.89
2217.46
1433.02
935.958
1843.21
672.152
461.176
381.647
313.659
331.032
281.786
310.926
273.549
360.017
386.725
422.639
512.491
594.406
676.342
1206.12
930.583
979.63
1116.06
798.513
1328.09
1652.89
1845.73
1503.74
2095.16
2229.16
2286.64
2456.47
2542.86
2762.54
2613.4
3039.81
3173.74
3219.38
3271.1
3384.8
3467.79
2089.48
1768.09
1101.63
512.605
339.653
321.701
280.626
324.36
269.145
267.962
280.924
244.138
360.117
377.47
443.532
535.954
620.409
719.201
1248.8
856.966
942.342
1101.43
1347.19
1647.27
1831.27
1409.13
1559.34
2036.26
2235.87
2305.86
2490.85
2609.36
2778.82
2914.92
3064.43
3097.34
3177.2
3202.52
3387.6
3511.77
2121.9
1704.42
1023.85
705.628
349.668
306.453
286.629
277.732
242.445
302.029
244.022
243.927
269.247
227.519
314.471
358.011
406.758
495.599
612.328
682.182
1196.83
852.645
966.68
1054.24
1241.86
1720.04
1926.37
1375.7
1537.63
2116.94
2228.18
2357.62
2515.67
2649.48
2923.85
3064.23
3091.75
3219.91
3404.69
3493.86
1630.51
1932.7
1302.41
641.987
317.102
243.633
251.865
244.844
221.145
280.8
234.427
232.157
241.966
212.201
301.999
316.382
371.19
426.598
527.28
699.542
795.435
926.627
1064.94
1238.83
1724.3
1918.53
1439.28
1314.68
1630.89
2058.84
2106.41
2246.78
2328.9
2553.21
2397.38
2629.82
2803.6
2959.25
3108.31
2965.73
3213.86
3417.46
3532.45
1631.9
1746.02
1349.3
999.006
412.962
248.596
290.673
226.516
225.018
220.081
191.433
263.829
212.896
212.426
234.158
199.204
272.708
296.463
353.953
381.089
508.15
654.311
804.66
860.625
999.52
1113.56
1184.15
1852.66
1400.74
1314.89
1641.16
2028.11
2096.41
2165.44
2458.99
2345.8
2667.27
2486.92
2830.37
2946.66
2890.3
3118.72
3269.98
3429.32
3504.43
1746.68
1736.35
967.23
388.634
253.68
188.607
199.13
199.398
182.917
185.265
243.206
204.282
199.884
223.944
180.366
258.494
272.13
314.961
368.478
385.76
431.202
553.949
600.252
728.898
867.542
1005.84
1076.29
1240.45
1896.28
1435.13
1743.93
1549.18
2067.39
2109.66
2221.97
2547.63
2434.16
2700.64
2889.49
2731.93
3152.92
2961.68
3259.81
3430.39
3543.49
1594.45
1690.6
629.671
1337.92
293.934
220.215
169.718
179.191
181.297
158.622
163.977
227.019
184.187
184.487
206.053
165.837
236.973
263.654
305.344
359.408
388.679
432.791
522.963
593.54
702.527
814.76
968.616
1091.43
1233.85
1839.97
1384.8
1713.07
1603.63
1923.49
1986.1
2189.29
2556.35
2302.09
2722.32
2647.42
3007.5
2889.75
3128.44
3258.67
3427.53
3554.74
1642.18
725.638
1169.16
220.612
256.216
148.028
152.436
157.787
142.982
148.285
225.936
176.187
172.472
193.193
154.009
227.013
277.159
244.341
329.741
291.419
358.431
481.816
402.121
611.27
726.359
831.385
1012.43
1156.3
1297.73
1449
1793.6
1565.98
1899.83
1946.96
2022.42
2400.46
2270.87
2612.3
2510
2992.16
2764.16
3121.18
3248.29
3441.87
3450.87
3529.17
1579.1
549.967
1231.67
184.995
325.399
203.172
133.175
142.077
143.879
131.163
127.395
135.177
209.281
158.663
164.031
177.283
139.904
231.638
209.906
264.089
245.426
324.197
297.933
372.367
332.558
479.954
422.883
568.247
681.496
900.814
737.488
995.558
1170.53
1268.56
1407.2
1798.87
1620.1
1990.16
2379.77
2110.99
2468.65
2630.96
2810.88
2721.7
2951.9
3165.74
3277.47
3278.09
3452.63
3572.18
1475.53
1100.8
713.408
1054.92
153.944
260.559
181.361
116.268
122.362
118.873
112.282
115.911
117.502
120.783
154.376
153.655
172.716
127.68
216.346
204.254
269.496
233.361
284.589
353.789
318.515
513.453
406.327
617.947
878.444
729.005
1049.07
1135.37
1319.64
1470.37
1732.44
1564.52
1862.48
2199.53
2095.67
2338.7
2511.58
2786.67
2552.55
2906.14
3016.18
3134.6
3290.62
3455.52
3579.05
1445.64
946.6
531.116
1281.75
133.427
307.459
200.164
144.876
101.348
115.909
107.189
97.1609
99.6426
100.034
112.078
142.862
145.451
157.092
178.103
116.194
128.705
215.227
185.558
258.798
237.695
292.454
326.217
363.023
490.203
422.151
593.752
793.744
964.682
638.705
1028.25
1175.12
1310.29
1423.33
1757.88
1644.69
1826.15
2186.71
1997.38
2358.42
2665.48
2445.9
2726.65
2980.67
3132.37
3277.89
3470.37
3479.5
3562.72
1459.87
1134.53
697.046
1155.42
231.996
188.011
123.64
89.4659
99.2672
91.9305
83.8124
93.4515
90.9611
100.064
134.625
138.363
154.164
163.661
107.708
117.126
198.369
182.633
264.266
225.772
280.772
295.316
345.15
519.103
386.493
784.329
974.805
622.805
1112.56
1259.1
1461.57
1662.8
1876.71
2026.7
2300.02
2527.18
2441.02
2626.63
2818.02
2936.3
3147.89
3314.34
3311.26
3470.19
3593.71
8.05517e+07
1211.74
517.683
1217.32
270.787
146.8
102.476
77.2149
85.6421
81.1818
84.1631
74.458
82.4589
78.9914
93.3252
128.184
130.932
141.103
159.136
97.8533
110.118
117.919
197.043
167.621
256.194
210.472
236.873
287.856
321.894
498.948
397.614
854.984
693.519
1068.71
929.153
551.842
1130.11
1286.04
1382.51
1583.24
7.05327e+07
1768.84
2003.36
2197.25
2475.8
2243.92
2651.8
2796.62
2948.84
3179.8
3188.24
3315.14
3552.39
1.04547e+08
1076.3
647.141
1187.74
1061.45
213.435
139.42
90.6907
68.965
75.5505
68.907
69.6967
64.2216
77.4261
79.6108
71.4026
85.6733
123.641
138.926
147.077
93.0421
98.9648
114.887
180.214
167.127
264.34
205.177
230.717
295.78
324.34
455.574
353.092
833.987
692.611
1092.02
972.379
551.997
1217.13
1411.69
1630
1830.21
2090.53
2184.27
2358.85
2202.89
2514.27
2628.41
2827.13
3080.6
3183.88
3274.23
3448.2
3631.12
449.994
1056.19
1136.47
166.319
232.132
115.991
84.5138
75.7447
59.9524
63.8381
61.1208
61.9292
57.1192
67.7784
71.6084
64.4543
81.0049
126.799
140.055
85.7901
95.3448
107.846
179.178
157.423
249.59
190.454
219.319
272.993
307.944
455.429
365.695
774.019
917.131
624.816
1038.82
1162.82
500.941
1234.5
1324.14
1536.37
1793.92
2036.29
2373.58
2095.71
2539.06
2554.55
2675.5
2938.28
3018.37
3145.01
3471.74
3546.02
3669.41
565.288
1176.78
984.176
148.476
179.454
126.594
91.8258
67.438
64.6889
56.7579
58.5041
53.8491
51.6288
51.095
63.5658
65.8118
72.3665
126.716
142.07
84.6449
97.3411
106.959
165.537
146.329
254.746
189.281
217.277
282.193
315.198
410.069
331.625
764.483
947.923
654.953
1078.77
1172.66
500.042
1330.66
1571.7
1918.74
1661.36
2273.38
2090.64
1996.17
2470.61
2552.14
2622.95
2891.58
3001.19
3106.17
3216.45
3404.92
3568.59
3640.45
453.924
791.532
1024.09
163.475
112.507
79.4781
60.0494
54.1232
49.716
49.0994
49.4429
45.4393
47.3395
55.7344
60.0437
68.5386
119.741
136.728
80.753
88.615
95.8231
112.302
162.68
141.355
243.973
173.464
202.333
227.741
274.586
304.386
410.048
341.504
824.221
924.982
1057.56
616.496
1242.54
452.786
532.968
1387.75
1528.24
1901
1632.27
2331.78
2134.96
1949.2
2369
2454.79
2747.25
2853.52
2886.38
3205.69
3404.37
3531.69
3624.81
260.902
557.193
679.175
872.652
927.955
131.111
86.0216
116.584
64.31
48.4363
49.0736
44.5355
43.476
43.1491
38.5788
47.7773
42.7167
51.7845
61.976
53.5729
69.7549
124.753
83.1957
75.4085
88.8038
93.6587
108.993
150.018
141.331
253.639
171.812
201.685
218.249
269.708
320.569
361.621
821.94
987.052
1130.05
641
1253.97
440.062
510.997
1470.81
1336.65
1763.62
1654.72
2271.39
2053.9
1878.99
2330.48
2432.49
2725.36
2806.66
2772.36
3072.87
3295.68
3336.99
3541.36
3679.05
249.519
400.836
767.861
924.162
877.334
122.098
72.0156
110.482
58.1257
43.2402
46.3847
36.643
40.5215
37.4961
36.259
34.6737
41.4876
48.1626
57.0568
50.0076
64.0039
117.144
75.3428
79.9298
103.029
85.409
147.166
133.575
248.711
179.217
163.073
191.121
219.138
277.945
321.201
374.266
779.985
941.673
1095.39
1228.06
549.65
691.645
476.418
1503.03
1382.79
1780.79
1576.95
2132.67
1935.6
1884.68
2134.12
2588.96
2305.9
2598.59
2590.68
2895.68
3150.96
3194.52
3371.02
3560.47
3642.96
178.359
443.913
568.087
907.968
758.385
656.507
114.369
83.426
60.3426
47.1074
35.6824
41.3077
33.0122
34.8722
32.9076
31.0054
30.9368
39.6012
45.5195
51.8629
59.6157
46.6788
67.9646
117.281
74.6005
78.9326
104.57
83.8642
137.542
152.209
123.366
231.577
266.116
168.675
197.464
299.231
354.142
844.557
990.054
1166.35
1291.45
535.507
668.98
477.387
1467.23
1350.11
1719.53
1610.73
2068.32
1870.39
1767.9
2079.74
2158.87
2351.16
2486.89
2503.72
2503.73
2845.92
3007.75
3217.43
3022.21
3365.72
3491.92
3708.22
169.289
296.091
815.013
803.776
654.966
108.926
74.3941
51.426
43.1989
31.9452
38.8761
28.4488
32.2407
28.7418
27.8517
27.4204
34.8438
40.9282
49.2418
57.3877
44.4791
66.8767
71.5803
103.146
75.6817
87.554
135.067
145.515
117.539
228.723
269.685
167.292
192.739
317.511
358.103
812.877
943.818
1117.21
1270.81
577.5
730.895
465.19
1530.85
1392.54
1913.74
1737.46
1932.59
2054.96
2270.16
2345.62
2540.96
2359.11
2710.49
3042.61
2879.27
3245.45
3276
3517
3659.07
131.338
314.089
778.618
598.585
818.672
365.481
87.8461
58.4587
48.6862
36.0954
27.5408
34.1412
25.8811
28.8124
26.8358
24.2096
24.1166
31.9881
37.832
46.2355
51.5795
60.6572
40.0289
70.3679
94.7928
110.665
74.2156
80.3336
125.6
150.078
236.161
220.674
288.557
252.027
177.132
201.976
316.521
402.252
856.651
1009.37
1167.37
1341.87
575.369
711.393
504.583
1542.86
1472.99
1836.98
1648.2
1923.05
2125.14
2229.95
2398.4
2731.72
2888.57
3061.92
3089.42
3244.61
3569.01
3687.63
119.018
203.542
487.824
619.414
744.205
81.8872
52.2331
38.301
32.6463
24.3605
32.4082
22.757
27.6209
24.9151
21.7603
22.0957
28.8057
34.6529
44.5415
49.7727
58.5075
37.8054
62.4316
96.4683
107.343
68.8643
81.0377
122.823
146.226
225.949
288.46
257.394
175.167
188.734
342.818
389.273
784.841
940.542
1094.91
1245.2
1367.62
539.588
668.306
502.445
1522.62
1710.68
1641.21
1854.94
2052.14
2261.6
2119.35
2458.38
2619.67
2695.83
2960.9
3082.61
3210.1
3363.71
3586.6
3732.82
92.5919
217.973
348.99
701.794
479.389
472.716
63.0701
42.0986
36.2425
26.6829
21.0854
30.0658
20.7927
24.8823
22.3819
19.8895
19.655
27.2215
32.795
46.8658
40.1035
51.9302
34.0182
61.5256
89.7574
110.483
69.0121
74.6866
125.679
137.119
154.543
225.356
268.186
308.343
243.18
168.059
191.189
334.108
424.503
788.977
966.015
1147.34
1242.63
1332.34
1477.66
577.662
670.419
490.52
549.525
1660.39
1900.83
1720.62
2149.02
2051.58
2358.27
2658.3
2785.61
2928.87
2997.84
3199.55
3404.51
3601.72
3701.16
89.1453
211.736
725.512
400.251
266.409
56.032
37.3737
30.3377
24.5695
19.2908
28.0203
30.1635
18.7603
23.741
20.2043
19.0006
18.4509
18.6113
24.7273
45.4764
38.6446
48.8257
32.7987
56.0962
92.7997
103.42
64.1921
75.0414
118.038
136.664
145.339
202.632
268.34
307.213
246.015
175.82
362.342
407.018
712.115
835.163
912.906
1042.34
1129.25
1314.35
1416.99
1526.41
536.98
584.26
1832.71
1628.08
2171.72
1908.82
2463.72
2741.41
2989.06
3216.39
3377.29
3565.54
3715.73
64.8334
77.8375
137.896
553.768
501.256
258.534
42.414
31.456
25.5603
19.8056
16.9559
18.4036
26.3718
28.2631
17.0604
21.2889
19.2535
17.2007
18.408
16.9466
16.6652
23.3574
41.4648
35.0845
48.4112
30.0542
58.1181
51.2053
88.7401
109.603
66.7166
80.6564
126.404
143.829
198.305
286.509
324.793
244.586
176.362
365.418
437.684
683.322
815.962
971.607
1041.23
1203.32
1401.12
1323.91
1479.06
551.281
1697.06
1529.6
2087.86
1856.72
2431.13
2596.91
2831.57
3023.52
3200.71
3306.48
3595.78
3767.96
65.5725
98.8135
551.306
523.8
36.6022
27.9055
22.675
19.5715
15.2789
16.0208
24.6482
28.1337
15.8304
20.3192
18.5042
16.0616
16.8028
16.1248
21.1746
40.3479
33.7767
43.2266
30.0202
52.6839
48.9358
95.1483
105.679
66.038
80.2851
127.546
153.272
203.956
290.048
355.9
317.065
224.364
265.727
167.176
416.126
488.044
737.487
884.646
961.345
1108.61
1178.86
1286.1
1474.6
1432.96
652.491
1633.88
2135.06
1940.35
1715.42
2291.38
2594.26
2677.96
2870.02
3035.53
3179.8
3194.22
3342.84
3615.25
3740.36
60.2296
67.7165
218.074
498.292
422.057
28.2967
36.0792
23.1736
17.5402
13.9908
14.7339
23.9262
25.7498
14.4941
19.0464
17.0873
14.7458
16.4172
15.1395
20.4657
35.5069
42.1739
27.7108
51.9624
45.909
90.0923
111.901
60.0635
74.4065
124.548
145.333
190.274
285.157
381.024
329.402
228.82
265.142
174.072
445.815
528.217
729.847
891.07
1032.45
1105.89
1272.52
1343.06
1479.26
1489.83
670.898
1536.03
2002.43
1850.98
1706.98
2316.62
2487.69
2542.39
2731.26
2830.38
2968.02
2965.65
3323.43
3629
3800.95
45.3532
58.5448
162.032
538.782
464.215
24.8192
28.3367
20.6063
15.1448
17.7945
13.7244
13.0269
13.1109
21.5583
25.2637
13.6879
18.4342
16.1857
13.9578
14.4783
15.2182
14.5925
19.3611
34.4449
37.7388
27.879
46.1687
53.7577
94.5891
106.962
62.1738
75.3744
131.106
154.447
195.745
305.006
359.938
424.213
212.52
249.114
284.185
166.605
488.915
615.706
830.48
1009.58
1181.23
1289.64
1442.72
1494.72
763.128
1899.75
1993.29
1645.25
2186.87
2557.25
2720.47
2801.55
2871.33
3180.04
3405.34
3650.73
3757.84
39.5004
60.2193
43.393
265.343
100.902
495.839
509.833
231.06
23.6374
20.8711
29.6592
13.9835
16.3985
12.5435
12.0131
12.1367
20.9411
21.932
12.6218
17.1357
14.9943
16.2442
12.8364
13.303
13.3082
19.273
31.4378
37.0438
25.1113
44.3139
50.3373
91.8151
114.943
57.2708
68.1583
83.93
126.591
149.77
180.342
304.835
373.36
461.998
217.295
253.75
287.379
519.438
649.367
847.221
1050.54
1186.23
1389.67
1496.2
1549.48
791.831
1860.28
2026.75
1693.87
2206.87
2450.35
2527.21
2612.76
2660.63
2950.37
3233.14
3388.7
3637.06
3807.93
48.347
36.2479
245.073
77.7764
544.546
529.223
227.77
20.0416
18.3947
28.384
12.3975
14.4802
16.5815
12.293
12.0081
11.3451
11.8093
11.2045
20.9951
12.2061
16.8405
14.3529
14.9157
12.701
12.9494
18.401
31.1625
33.6179
39.3824
22.5963
26.3768
46.9318
52.0582
100.287
111.507
58.7232
70.1648
84.3405
134.936
157.915
183.642
323.701
353.307
418.386
470.287
203.191
239.849
274.858
313.763
597.692
716.156
951.135
1022.8
1127.99
1260.81
1390.54
1471.42
1515.58
896.73
1784.67
1934.45
1620.99
2320.85
2013.13
2422.36
2447.39
2579.82
2510.89
2854.03
3017.65
3190.68
3379.16
3648.48
3770.86
54.9827
39.2974
448.689
146.03
396.986
18.0826
23.0352
11.7632
13.8458
15.0927
11.3037
11.2632
10.8242
10.8772
10.5375
18.8069
21.2903
11.5346
15.6889
13.4746
14.7534
11.8115
12.2296
28.7548
32.532
39.037
21.4068
24.6155
44.1501
48.5391
98.9879
119.939
63.9853
55.043
78.2576
91.1428
130.734
173.517
151.306
383.686
438.016
543.447
212.954
247.102
281.96
326.116
635.832
724.584
965.323
1117.38
1161.41
1229.83
1351.36
1475.19
1549.81
934.19
1809.58
1639.61
2264.58
1991.94
2306.7
2380.06
2340.77
2535.99
2694.76
2998.36
3183.25
3344.4
3647.06
3836.54
44.9113
35.7781
452.494
132.615
425.126
17.9883
15.0327
21.7444
12.5196
10.8226
11.0077
10.2283
10.3806
10.4728
10.0293
17.7694
19.0914
11.2943
15.4649
12.9486
13.8893
11.5606
11.854
12.197
28.7975
33.7201
30.2397
36.3769
19.123
22.2426
26.1431
45.3112
49.9496
106.628
116.236
66.7058
56.9913
79.4932
91.5957
138.812
178.742
164.584
375.154
496.556
558.832
622.502
237.001
205.67
267.634
308.791
764.588
1053.75
1125.25
1267.66
1430.18
1494.88
1546.46
880.702
1062.48
1735.77
2115.92
1874.07
2132.44
2212.96
2399.88
2651.29
2762.31
2960.5
3129.89
3403.35
3667.25
3783.87
47.484
27.4062
437.92
61.4349
256.65
310.047
15.5291
13.2765
17.6299
12.0062
10.3871
10.3938
9.90122
9.82024
9.86169
9.66076
16.145
10.6333
14.13
13.2047
11.0299
11.1421
11.8884
31.7678
29.4623
38.1921
17.5646
21.5746
25.5106
43.1065
45.9596
106.12
123.991
74.9316
62.8505
55.1711
85.7951
98.7565
135.516
191.779
166.918
392.243
520.731
625.841
709.363
249.644
219.128
277.951
319.692
1084.13
1200.75
1369.38
1437.84
1587.08
1647.61
932.696
1130.85
1755.67
2070.46
1895.57
2013.83
2247.67
2057.77
2452.61
2738.71
2934.92
3147.85
3379.83
3652.67
3850.8
38.9221
23.8337
449.46
138.315
257.466
354.487
13.3106
15.2299
18.1456
10.956
9.75953
10.3204
9.95507
9.61085
9.52508
9.59346
9.46099
15.5115
10.4372
13.6461
12.5621
10.5462
10.984
12.0839
11.2196
32.236
27.1082
35.9716
17.7825
15.9835
20.068
23.9416
45.9765
117.912
78.4859
67.0597
58.5704
50.3045
86.3563
100.508
143.937
192.245
181.849
159.128
356.253
439.904
612.177
491.684
707.076
638.586
240.772
269.616
210.233
299.055
1194.27
1415.13
1539.43
1623.99
1667.75
1037.46
859.014
1115.85
1232.3
1811.7
1859.44
2184.94
1927.35
2334.89
2591.25
2686.73
2951.1
3171.96
3344.55
3672.22
3804.72
25.4292
35.3289
393.432
114.173
265.125
12.2555
13.4028
15.1239
10.5073
9.48034
9.45842
9.98541
9.51883
9.25004
9.17097
9.16858
9.22188
14.051
10.0026
12.704
10.2078
10.4558
11.5691
11.0008
30.3273
26.3611
37.611
16.0192
18.8362
14.9919
21.2286
23.8221
42.3444
119.459
75.935
63.5087
55.0014
49.9491
92.3645
110.038
142.451
184.583
171.91
369.061
445.305
629.661
555.845
765.719
719.594
257.229
284.711
214.638
310.745
1275.06
1486.61
1377.29
1560.09
1749.61
1064.12
920.299
1222.87
1306.5
2070.53
1790.1
1956.76
2331.38
2430.64
2577.72
3015.39
2779.44
3152.22
3314.16
3673.87
3878.12
20.5658
63.7049
24.9319
381.08
218.112
319.155
11.0827
12.893
16.2036
9.74799
9.1147
9.07226
9.57986
9.22416
9.1631
9.07297
9.00797
8.98364
13.5235
9.71142
12.1869
9.83582
10.1565
11.5942
10.5555
26.946
31.5947
35.1417
16.0373
17.7555
14.1817
20.4989
45.1231
126.542
79.8141
67.1421
55.5124
93.0841
113.184
134.194
160.06
199.536
173.381
408.175
336.671
489.214
687.987
549.258
790.726
282.366
253.845
233.047
1544.15
1425.84
1676.72
1011.48
1151.97
904.057
1223.82
1294.25
1394.35
2046.03
1903.21
2110.79
2369.16
2608.58
2833.89
2692.49
2861.86
3127.24
3417.78
3699.11
3823.01
53.8763
23.5537
376.493
166.58
199.473
10.527
11.4043
14.3868
9.41971
8.96209
8.82754
9.25115
8.98659
8.86682
8.75176
8.84992
8.77168
12.7208
9.36556
12.2594
9.67334
9.81227
10.252
11.2
10.6111
25.4017
30.0131
36.3351
14.7636
18.087
13.696
20.9644
44.1232
123.819
76.2116
86.5428
64.7323
58.5565
52.4699
102.274
111.186
142.417
160.566
204.024
193.424
421.07
350.841
484.967
774.482
683.169
615.25
878.597
300.856
277.686
239.053
1516.97
1682.83
1049.76
1173.27
999.863
1297.68
1400.39
1439.88
1795.92
2067.07
2216.21
2400.82
2474.62
2780.75
3195.76
2883.85
3398.69
3679.18
3879.62
35.1399
76.531
18.3012
350.829
201.786
233.802
9.75576
10.954
11.635
14.8198
8.94924
8.67544
8.60778
9.03437
8.72796
8.68423
8.61749
8.67755
8.60515
12.6614
9.15199
11.4455
9.28827
9.59377
9.79024
10.1811
22.724
27.2842
32.5095
39.1941
15.2657
13.8931
17.2698
18.9345
47.5326
130.522
81.2718
91.8672
69.1138
58.5496
54.9009
101.951
120.019
139.417
169.968
225.46
199.681
401.682
332.831
519.999
851.793
744.571
630.98
946.566
296.144
278.083
265.659
1560.05
1122.38
1250.42
1050.98
1390.55
1447.64
1495.58
1786.85
1925.66
2223.18
2401.23
2538.91
2916.76
2754.71
3154.23
3372.17
3754.67
3931.66
36.095
52.6517
18.7626
353.247
318.769
138.382
182.19
9.42685
9.87445
10.9488
12.5233
8.75099
8.40494
8.88263
8.51442
8.50687
8.44036
8.5002
8.38796
12.1085
9.00901
11.2447
9.20969
9.71935
10.2375
22.4674
25.9862
32.4596
39.3918
14.0168
16.5962
13.3698
17.912
19.4485
44.1769
128.814
76.9805
89.3793
63.9742
55.4922
111.008
119.971
146.092
161.602
187.577
236.93
222.913
430.561
362.408
603.534
500.002
858.087
930.627
716.688
830.158
1036.11
319.12
293.498
275.723
1665.14
1133.69
1282.28
1461.59
1450.21
1526.64
1923.91
2085.64
2221.62
2421.31
2908.42
2523.9
3126.33
3303.77
3534.86
3775.72
3887.77
27.6292
62.4622
15.3085
253.137
319.308
165.995
8.94067
9.93466
10.7852
12.7988
8.45444
8.32186
8.2372
8.62845
8.54671
8.38302
8.36533
8.35121
8.37061
8.26441
12.3961
11.552
8.87361
10.6913
9.01044
9.36274
9.87819
21.3547
27.1091
36.7929
29.4878
14.0305
16.9022
18.2388
46.6899
140.139
79.8165
94.2494
66.0321
61.2575
52.3249
113.724
129.922
172.726
198.582
259.021
225.663
416.055
353.84
662.817
554.642
956.321
989.531
765.531
883.831
1110.81
318.944
292.405
274.846
1697.32
1209.66
1387.72
1580.35
1532.47
1626.9
1811.2
2094.09
2167.18
2240.82
2700.74
2421.91
2811.7
3129.67
3520.89
3766.19
3938.25
29.7641
42.0956
16.4464
164.873
212.276
280.947
111.158
8.82057
9.54441
10.0275
11.6157
8.33197
8.14851
8.12655
8.54586
8.41355
8.31827
8.2352
8.19881
8.24706
8.12577
11.8301
11.0595
8.60643
10.5867
9.01334
9.35481
10.2074
9.61499
22.4024
25.3545
37.1052
30.1955
15.5396
12.9327
16.8566
18.5248
45.5048
142.53
74.4323
88.5126
108.03
64.0238
54.835
126.543
130.687
189.775
170.179
274.585
233.459
456.884
391.373
647.682
747.161
531.955
1006.5
1092.91
857.179
964.801
1216.83
342.096
305.622
296.494
1424.64
1604.99
1656.6
1573.17
1855.42
1974.84
2013.64
2158.24
2514.08
2247.31
2767.37
3174.87
2923.95
3349.69
3533.73
3773.06
3879.95
23.6993
48.3047
13.216
156.105
294.105
133.816
8.47335
8.76365
8.9501
9.69643
12.2839
10.1005
8.15277
8.08207
8.0998
8.04153
8.4093
8.21175
8.11997
8.16688
8.1187
8.0486
11.1289
12.0352
8.47151
8.72431
9.07361
10.1403
9.62575
20.9307
27.1901
32.6923
41.9276
15.4444
13.1926
17.0874
51.3947
157.424
78.2466
91.4987
115.801
59.9973
75.1811
131.387
135.109
200.781
187.543
279.048
298.534
220.195
259.402
437.159
384.579
723.061
825.243
566.316
1096
1145.55
934.321
1007.16
1290.87
335.458
1525.96
1380.01
1713.73
1766.66
1666.41
1936.78
1990.29
2364.95
2199.22
2555.98
2995.63
2817.33
3362.52
3508.25
3688.86
3833.26
25.6326
33.1286
18.7127
37.0989
210.048
249.441
84.1245
8.33077
8.4548
9.05021
10.8781
9.71835
8.16451
7.98728
7.98839
7.96285
8.32596
8.20399
8.11624
8.04638
8.07115
8.02367
7.96722
10.5232
11.535
8.35343
8.47859
8.49775
8.80171
9.08396
9.49744
21.6973
26.8111
32.9196
42.336
16.2325
14.0849
12.1822
17.4785
54.0383
159.984
85.0969
101.399
130.408
112.691
61.3855
78.4183
149.566
190.695
304.959
327.493
230.01
270.829
495.573
413.382
716.59
819.093
931.492
644.47
1155.18
1233.44
1088.55
1279.52
353.577
1545.93
1439.27
1743.03
1807.32
1740.14
1930.52
2392.85
2077.12
2535.86
2977.48
2653.62
3135.49
3301.39
3328.36
3678.43
3914.82
36.067
18.8989
11.5134
199.038
264.953
103.129
8.28762
8.73838
11.4612
9.55398
8.97265
8.04258
7.93508
7.93813
7.91594
8.12164
8.03135
7.96449
8.01315
7.96624
7.9244
10.4477
10.9433
8.30246
8.37189
8.59401
8.80968
9.22211
9.63032
19.5691
24.6905
29.3354
36.9797
48.0386
14.9851
14.0517
12.2119
16.6756
53.0776
176.146
94.3215
102.11
140.399
124.986
66.0327
84.6559
72.8607
163.382
206.329
328.159
313.092
251.416
221.881
304.051
504.045
454.083
405.499
781.556
911.326
1023.71
673.225
1146.94
1254.29
1127.46
1402.58
391.192
1611.84
1831.5