/*--------------------------------*- C++ -*----------------------------------*\
| =========                 |                                                 |
| \\      /  F ield         | OpenFOAM: The Open Source CFD Toolbox           |
|  \\    /   O peration     | Version:  v1912                                 |
|   \\  /    A nd           | Website:  www.openfoam.com                      |
|    \\/     M anipulation  |                                                 |
\*---------------------------------------------------------------------------*/
FoamFile
{
    version     2.0;
    format      ascii;
    class       volScalarField;
    location    "10000";
    object      p;
}
// * * * * * * * * * * * * * * * * * * * * * * * * * * * * * * * * * * * * * //

dimensions      [0 2 -2 0 0 0 0];


internalField   nonuniform List<scalar> 
71770
(
357.026
356.641
354.42
348.732
334.93
327.003
320.486
314.849
310.703
310.621
311.863
290.056
356.006
353.34
354.658
354.641
354.648
353.34
353.34
353.341
353.341
353.34
354.658
354.659
354.657
354.658
354.655
354.658
354.659
354.653
354.658
354.659
354.659
354.659
309.421
355.886
355.924
356.477
356.404
356.307
356.18
354.102
353.976
353.815
348.144
354.197
356.015
353.607
347.946
355.971
355.985
355.952
356.973
356.944
356.53
356.903
356.846
356.771
356.67
356.569
354.268
354.32
348.299
348.42
348.513
320.427
356.004
356.002
355.999
357.015
357.02
355.993
357.007
356.614
326.784
320.3
314.663
310.41
356.993
356.596
354.357
334.692
334.835
334.863
334.799
326.954
326.928
334.752
326.845
326.892
320.397
320.355
314.765
314.722
310.5
356.638
354.397
356.006
357.026
357.025
356.639
354.415
354.412
354.406
356.64
354.382
356.006
357.026
357.026
357.026
357.026
357.026
356.641
356.641
356.64
356.64
334.9
326.992
334.911
326.997
320.482
334.918
320.448
320.478
326.984
326.972
320.472
320.463
348.718
348.709
348.694
334.925
334.923
326.999
327.001
348.726
348.723
354.417
354.416
348.729
348.728
334.927
327.002
320.484
348.67
320.485
320.485
356.641
354.42
354.419
354.419
354.418
354.419
348.732
348.731
334.93
334.93
334.93
334.93
348.731
348.732
348.73
334.929
334.929
327.002
334.929
334.928
334.928
327.002
327.002
320.486
320.486
320.486
327.003
327.003
327.003
327.003
327.003
327.003
320.486
320.486
320.486
320.486
314.849
314.849
320.486
320.486
314.849
314.849
314.849
314.849
314.816
314.829
310.645
314.843
310.69
314.846
314.838
310.681
310.667
314.795
310.613
310.696
310.699
310.613
311.843
310.596
310.606
311.829
314.848
314.849
314.849
314.848
314.847
314.849
310.703
310.703
310.701
310.704
310.704
310.616
310.704
310.704
310.703
310.703
310.703
310.703
310.619
310.618
311.858
311.851
311.855
310.62
310.62
310.621
310.621
310.621
310.276
310.38
309.956
310.138
311.075
289.746
310.513
311.48
310.457
311.306
289.838
311.609
289.907
310.552
310.385
310.774
311.804
290.039
290.016
290.031
310.578
311.764
289.993
311.701
289.958
289.626
289.473
289.277
255.139
255.073
255.203
255.312
255.261
289.028
290.045
255.428
255.387
255.412
255.438
255.445
255.354
311.859
311.861
311.863
311.862
311.861
290.055
290.055
290.048
290.05
290.052
255.453
255.449
290.053
290.054
255.456
255.458
356.005
357.023
356.005
357.024
356.636
356.632
356.625
356.006
356.006
334.884
348.634
348.583
310.566
309.721
309.892
356.006
356.006
255.466
247.67
247.585
247.723
247.749
247.728
247.727
247.726
247.725
247.723
247.733
247.729
247.745
247.738
247.752
247.756
247.722
255.461
255.463
255.464
166.712
165.379
183.173
163.252
166.435
165.114
176.02
166.909
165.063
152.821
156.435
158.438
185.059
164.19
157.814
165.505
157.944
154.205
150.735
191.19
201.047
162.254
170.25
160.385
159.581
155.788
151.228
147.52
147.221
175.735
174.395
167.192
167.841
162.647
164.695
147.571
146.644
150.375
145.442
148.869
150.007
146.902
144.103
142.82
158.298
152.721
158.728
143.176
141.371
147.275
149.511
151.398
141.453
149.738
144.756
142.018
138.887
153.319
165.617
152.758
147.952
155.968
155.713
143.881
142.336
143.258
146.427
137.829
139.175
147.769
136.589
135.813
137.153
136.39
166.904
169.71
166.04
148.638
152.123
146.605
137.972
138.132
143.491
139.255
139.933
143.932
140.743
143.944
142.271
139.774
134.731
132.944
199.155
155.272
173.724
173.559
146.435
165.244
146.269
143.136
135.372
135.396
141.216
138.326
136.193
142.078
137.336
144.124
135.481
133.006
132.984
127.432
165.174
174.384
147.539
147.854
143.947
134.336
144.772
136.04
132.52
132.933
134.293
134.569
134.644
142.358
135.328
133.853
129.626
124.044
125.42
170.939
169.439
147.66
142.032
146.614
133.006
137.347
129.025
127.35
124.366
129.664
131.401
129.916
130.256
129.705
132.536
128.125
136.65
130.453
128.271
123.864
124.327
118.269
155.817
164.943
154.567
153.965
142.011
139.097
126.602
136.723
128.088
127.597
124.946
122.325
131.323
126.223
129.299
131.733
130.235
132.751
131.013
127.825
128.982
119.285
115.925
115.842
178.663
139.711
148.21
145.74
128.388
134.36
132.513
119.601
125.973
120.215
122.271
119.632
124.317
122.278
121.728
130.291
130.763
125.701
130.419
126.965
118.824
118.525
113.031
109.781
173.193
126.86
150.069
138.662
120.427
129.053
119.455
117.892
122.603
123.203
116.722
115.73
127.163
117.016
116.859
132.615
121.342
119.787
122.16
120.752
121.029
119.276
117.532
106.745
105.448
106.236
156.741
138.54
139.6
135.429
116.787
123.859
127.373
112.209
114.475
117.383
108.627
109.493
107.835
120.073
121.041
114.567
129.969
118.844
125.199
115.165
123.979
119.147
118.428
107.895
110.613
104.335
99.0692
127.02
139.569
131.887
126.685
112.133
121.237
115.817
105.423
106.838
106.91
108.258
108.352
110.166
104.864
106.264
111.573
111.199
116.829
125.998
119.302
125.366
116.973
120.324
123.699
113.473
113.017
108.315
99.938
98.4779
94.995
150.898
140.823
130.754
136.932
122.821
112.195
113.966
98.3339
99.3217
106.144
105.21
107.67
100.604
95.4388
113.844
110.101
113.436
118.705
109.013
110.311
122.241
109.802
109.252
101.835
106.487
101.527
96.7037
90.1738
89.7061
120.622
137.976
126.195
123.797
107.819
101.167
109.395
93.0848
96.7867
96.2317
100.555
94.436
91.2014
94.8637
98.099
89.8188
94.472
107.414
115.237
107.392
114.482
113.591
107.164
108.868
108.597
101.994
106.194
94.9625
93.9611
90.3685
83.2205
78.5826
152.125
133.024
113.444
111.321
120.19
101.531
100.151
90.5885
87.7271
89.1276
85.6535
105.734
88.346
91.2548
89.7052
82.1652
87.5093
97.4725
99.9918
111.614
110.73
97.3596
104.04
114.204
113.185
106.287
96.0226
102.268
101.659
92.6974
92.6719
92.7851
83.2521
87.2149
136.636
121.369
158.553
104.826
112.028
99.5083
90.0961
85.2927
94.6128
82.6633
81.8579
84.6687
79.0138
79.3271
98.484
92.7191
89.9914
83.8648
82.3639
96.8554
104.455
97.1508
101.942
89.1147
108.191
106.941
106.48
101.559
100.466
99.9324
92.2912
90.7005
89.2496
76.5241
84.0776
71.9059
130.688
114.501
129.023
123.965
110.104
109.791
91.0962
81.8552
75.0332
76.5838
75.3011
70.5549
78.8233
72.2959
69.7968
89.16
89.2027
84.4865
86.2868
78.192
103.278
98.2543
98.1039
98.2008
104.861
104.242
97.3818
96.8045
90.0012
89.4241
82.0681
77.481
82.9651
74.1201
72.7069
67.1411
127.325
122.418
116.822
98.1581
94.947
97.9946
78.4842
74.5969
67.5026
71.0027
73.7766
68.088
67.3118
66.2387
69.4222
86.8727
82.9465
78.0697
77.1075
74.5908
97.0329
90.6055
96.2186
100.289
100.255
103.694
97.8366
94.7032
86.6965
83.0517
77.6742
82.2844
76.0225
67.7336
63.7679
63.9851
117.624
103.6
108.856
127.18
90.3984
90.005
76.8857
83.3953
65.0568
60.7774
61.8425
62.5461
63.344
64.4783
58.5487
60.5163
66.3137
72.1021
76.3419
75.3157
74.373
65.8701
77.8531
72.0829
89.3892
81.4182
92.4125
98.3059
94.6462
95.6434
96.5156
94.4758
86.2229
85.4157
76.9385
73.0271
71.1726
67.8236
61.7125
57.5096
102.69
108.561
96.5899
123.191
88.2558
81.2042
70.8066
74.2565
58.5679
51.2107
53.4201
57.2429
57.3723
57.967
53.2091
56.4077
56.3497
61.4285
79.0922
71.4659
66.8032
64.8144
87.3088
89.1892
80.9319
91.6824
88.983
94.18
85.7326
88.5123
83.148
80.3158
70.9252
77.5728
74.5992
71.1241
66.9334
59.8212
54.3784
52.7723
70.9435
105.826
100.369
128.663
80.9523
85.4092
72.8298
60.6231
48.7258
44.9674
46.9133
49.2897
50.8827
46.3979
45.9761
47.5919
47.2222
54.3112
74.3757
62.7985
62.6053
64.7762
56.7965
82.3136
83.4716
89.393
72.9492
88.2096
89.1942
88.7423
80.04
79.7702
72.3006
72.2768
69.546
63.8385
57.7466
54.4837
48.1767
48.3395
114.638
109.509
91.392
72.2967
64.4519
63.9086
54.2323
45.4446
43.7078
36.8269
39.9954
42.0442
44.6004
41.7011
43.2603
43.5523
47.6241
53.2084
69.7251
56.3608
54.3631
64.9153
67.7995
74.1537
80.7526
67.1597
71.4988
84.526
85.2731
82.3478
76.7576
74.2194
66.3619
64.6873
58.0069
57.8594
51.9503
51.9648
46.9445
39.8606
98.5891
94.0046
88.215
74.3223
62.6575
57.9334
61.8992
56.7037
41.8383
36.3867
35.6093
28.8925
33.4915
33.7614
38.5149
34.7575
37.7175
34.3513
41.4533
44.0289
62.1924
55.2066
52.5619
59.5197
62.7381
74.3347
76.5394
68.1476
67.2048
82.543
79.6305
74.3905
71.9046
69.0411
62.3646
54.8363
51.971
38.8891
37.6334
36.0698
91.0997
122.72
88.03
84.8541
57.1343
48.6484
49.8804
48.9486
35.7889
30.7604
29.2866
22.0843
24.8651
21.7439
29.6566
27.764
32.6165
30.9511
37.7225
43.5823
50.5437
45.9447
51.5348
59.2918
75.3147
82.005
66.8085
59.2714
70.1986
78.1601
72.7895
73.0337
64.0125
65.4633
62.1626
58.5839
59.2424
49.8446
39.8821
51.1096
43.5537
35.5612
28.9299
100.58
102.206
81.4325
74.0659
63.6922
52.0012
60.6961
45.0549
43.8253
39.6585
29.1331
20.5854
23.21
15.3933
18.3344
16.9761
20.0677
19.4064
26.5479
26.3603
31.8826
39.507
37.3461
38.6139
44.2352
52.0112
54.2632
74.0639
54.6413
55.3673
65.267
69.8496
74.8578
63.7875
59.239
62.7458
56.731
59.0902
52.6115
47.4905
46.0765
40.8442
29.5009
25.6837
25.6649
111.652
102.363
90.6402
64.8823
47.9175
35.4737
33.2886
31.1466
20.3911
24.1351
14.6555
16.1711
3.486
5.51026
7.95473
12.1969
13.1345
18.9144
23.0983
21.2784
20.0465
28.2424
34.0022
34.3174
39.1074
43.023
46.4887
55.581
70.5666
55.1844
62.7303
59.2292
66.6395
64.2745
60.696
56.0414
57.7943
48.1476
39.1895
48.8604
30.3459
36.1467
30.4951
24.3169
20.0098
105.9
70.7332
68.136
84.8734
52.3858
41.123
29.3728
30.5128
26.4459
13.6846
9.8745
9.84301
9.06608
-2.78739
0.492633
2.89903
4.55563
5.92759
12.7114
17.4597
17.5288
14.8321
22.3487
24.1264
27.0147
32.8683
38.2377
35.5025
48.2068
68.8618
52.4021
55.4126
57.669
65.5272
60.6314
54.3875
50.7203
52.6838
40.0722
45.9997
33.5804
38.081
28.1016
17.1223
20.4786
12.0536
91.9047
60.9635
85.6192
45.1432
52.2411
16.4845
22.9235
17.7495
5.76864
3.72007
4.32314
3.16858
-13.3962
-6.73217
-7.5497
-3.64858
1.9835
-7.35315
13.3771
5.55093
6.05121
17.6553
5.39859
23.3958
24.0612
21.7741
37.9613
36.5482
46.1946
48.7774
53.4811
50.679
61.175
50.0359
51.8628
50.5261
49.1549
38.2594
38.3225
28.3454
35.4942
20.9228
20.1572
14.2618
8.1671
8.70284
81.2791
56.0928
96.2554
37.7515
53.1919
40.5797
10.5159
12.2548
22.2171
14.8171
-4.38414
-6.27128
-5.67884
-3.60254
-17.8892
-10.254
-11.6776
-9.97694
-8.33342
-5.39856
-10.1479
6.70535
2.27078
1.90321
2.87729
10.9442
5.04141
14.3472
17.997
21.8636
17.6204
29.2903
39.6766
36.4807
44.8058
56.7756
46.0211
52.0593
45.6726
49.1154
39.537
36.6526
27.2135
24.3922
21.2375
17.4096
13.9154
13.7776
7.91855
4.17332
96.7406
92.5905
60.6403
66.9611
28.8965
47.0687
32.9605
-2.313
3.24688
13.9609
4.85788
-15.0703
-3.65084
-15.9863
-8.82507
-27.0873
-16.9247
-18.9003
-15.6688
-16.1905
-9.50021
-18.7979
-5.4009
-6.51581
-3.56106
9.67114
-4.81383
13.1571
16.2548
9.33492
26.6601
34.7333
34.6405
40.8096
52.7499
42.3834
49.0768
39.7577
37.9773
29.627
31.0269
27.6167
30.5568
14.4072
12.8153
12.9942
0.680034
5.1953
-2.86055
71.4456
93.4541
58.5627
58.2869
20.9298
52.4555
37.2902
23.8032
-8.57631
12.3013
5.88904
-5.67878
-22.5339
-22.7514
-25.2393
-21.328
-29.4423
-26.603
-27.7542
-26.5121
-25.8324
-21.5351
-26.8414
-17.4089
-21.6003
-8.30285
-9.76059
-9.64878
-0.493783
-6.98759
3.40842
11.4241
16.0317
3.29805
23.9109
28.1727
37.8793
34.7983
43.5152
40.7083
40.7551
33.4594
26.5639
28.1373
22.4701
33.6541
19.5001
13.021
6.01547
6.15973
-1.37034
-6.58254
-6.61325
55.8917
98.9439
55.077
60.9547
40.6249
32.8962
18.9238
-15.8301
6.2892
-4.45869
-13.6568
-29.1011
-25.5724
-32.3511
-26.211
-39.5022
-32.3137
-34.3519
-34.7302
-40.6774
-29.5544
-34.633
-20.3317
-34.4244
-16.0622
-14.6688
-18.3336
-1.67447
-15.2303
4.90404
16.4136
-3.94994
23.2903
31.5023
31.1733
42.2306
29.2537
39.2815
35.7835
14.6053
19.3004
16.1038
13.0814
0.124137
1.52741
-6.21895
-2.87861
-14.2227
-18.7005
133.239
60.8322
50.3359
72.6184
40.0419
25.094
8.31074
-24.0317
-0.326132
-12.4958
-4.97433
-23.5847
-41.2846
-35.2701
-39.7875
-35.8743
-42.6722
-38.4274
-41.7069
-41.9854
-42.3363
-42.7818
-37.9049
-40.8069
-27.7987
-41.0963
-35.9861
-21.9895
-24.9857
-11.2146
-19.0544
2.82893
-1.69393
16.2501
11.6798
-11.692
19.749
24.684
26.5004
35.8945
135.384
25.018
29.6525
35.5558
18.0779
17.1751
13.8756
1.13315
0.637639
-5.0162
-1.78675
-16.4574
-7.5545
133.322
57.1483
56.9757
78.1237
59.2249
33.8298
21.5187
3.22252
-35.3275
-7.44535
-19.0692
-16.8643
-32.9817
-44.4506
-48.4839
-39.1344
-49.6396
-51.5941
-44.8339
-47.1288
-51.1813
-49.686
-51.2398
-47.7406
-47.0163
-31.1925
-49.8862
-43.2078
-26.7755
-30.1649
-17.5902
-27.3567
-1.84433
-6.57454
10.1046
0.728672
-19.0085
21.0193
22.6682
29.7889
28.1418
22.6998
16.1988
14.3939
22.142
11.8053
4.88356
1.103
-4.65394
-8.78414
-11.6073
-9.21682
-24.9762
41.5943
70.6227
52.6608
29.9068
39.1059
16.4236
5.45877
-4.18811
-45.0969
-14.7089
-29.5191
-20.3658
-42.8701
-50.459
-63.0811
-49.6345
-60.445
-52.3799
-52.9255
-61.5924
-58.2015
-57.2029
-57.2645
-59.0062
-41.1839
-57.1774
-48.4698
-44.3241
-40.4406
-24.115
-30.8945
-6.94496
-4.6189
-16.6604
2.76509
13.9149
-23.0546
17.8337
22.8504
22.168
24.164
26.6669
10.3571
22.2307
6.77522
4.2744
-3.26966
-4.81645
-10.7774
-10.2942
-19.5099
-22.5768
-27.8741
43.7645
54.0761
51.7846
26.6123
31.4462
18.1578
10.3855
-6.9524
-9.50081
-51.3054
-17.8927
-37.5292
-28.1505
-46.3217
-58.3939
-65.4827
-64.2557
-57.0454
-59.2636
-62.6606
-61.6593
-66.9677
-62.855
-62.8553
-46.9514
-64.0181
-57.5492
-46.4442
-44.4341
-30.1182
-39.9109
-18.7068
-3.59135
-18.4007
2.73878
1.82955
-30.485
12.9333
15.8842
23.1307
23.0601
5.99164
6.5659
7.28782
2.276
-0.44525
-6.6283
-8.58875
-6.99495
-25.1058
-22.5519
-26.2481
-30.1452
-31.2022
35.2221
56.6269
51.317
30.7144
14.1712
3.2291
-10.1107
-59.0489
-25.9614
-44.9258
-35.0557
-33.0282
-54.6913
-64.7578
-75.4285
-72.2805
-65.8303
-70.2787
-70.7426
-73.2609
-82.2812
-71.675
-69.5238
-67.5793
-59.4013
-68.168
-65.68
-62.882
-52.1257
-52.5581
-36.9661
-47.8879
-19.6447
-9.1447
-4.46007
-22.9487
0.937224
-37.6623
-31.4559
8.62197
19.4638
16.5756
14.1738
4.14258
5.39609
14.7606
-0.843502
-10.6616
-10.3318
-7.35835
-21.4193
-20.0425
-26.1852
-35.1839
-35.0327
33.8352
46.4967
61.3764
47.7607
60.9571
22.9074
7.06815
18.4314
-4.52646
-17.7989
-66.2769
-25.6811
-51.8362
-49.6261
-40.9036
-65.864
-65.1062
-75.1358
-79.5649
-79.8448
-81.7552
-72.8255
-79.2174
-83.0085
-82.4402
-94.5268
-83.5146
-76.6261
-74.253
-64.9495
-76.9542
-74.2368
-72.203
-60.1654
-53.4538
-46.9096
-21.9719
-15.2482
-5.57846
-32.9546
2.43472
-45.9745
-40.2671
12.9239
3.85774
11.9461
11.527
-2.28656
3.80271
14.7694
-8.07074
-11.8342
-11.3145
-20.3745
-22.3831
-21.0997
-29.9328
-32.527
-35.9568
-41.1663
33.303
37.3277
71.8577
37.381
43.0197
21.7569
3.42422
12.9352
-7.58011
-21.0744
-76.6152
-35.2645
-62.4865
-53.7676
-50.3588
-42.1557
-69.3536
-80.3682
-91.7051
-90.3644
-95.2664
-80.9363
-83.8465
-91.0258
-94.0229
-99.4169
-88.139
-87.0537
-73.5673
-85.9491
-91.7345
-82.9654
-82.5683
-73.0467
-60.0376
-49.7304
-28.2099
-22.3846
-12.0608
-2.65079
-40.8657
-32.9958
-46.8872
5.97489
1.10982
13.7292
7.57481
-1.68198
3.29784
3.07521
-5.56133
-16.3585
-15.8383
-14.971
-22.3493
-27.243
-30.8461
-32.6756
-42.5854
-43.8427
-39.6386
24.8289
39.7946
55.3482
40.5149
32.2096
44.3178
17.5402
6.26258
-3.53388
-14.2178
-29.7362
-80.7695
-37.0507
-66.9888
-65.1391
-58.025
-53.0932
-75.7066
-89.8029
-96.0095
-97.4838
-94.5318
-97.3924
-89.6948
-90.3675
-98.5928
-95.4248
-107.958
-94.1023
-94.6725
-91.5578
-80.1502
-75.9859
-92.4679
-87.0136
-71.5295
-56.5515
-29.1395
-22.617
-14.4286
-7.03841
-50.3368
-43.2879
-51.4616
0.482901
-1.77686
0.579973
0.442511
-9.60898
-5.74462
-1.03404
-10.8205
-17.2276
-18.7603
-13.9625
-28.9842
-22.8997
-26.4645
-30.0591
-40.2139
-30.7831
-40.2103
-41.9583
-58.8233
27.8541
32.1264
36.8114
30.4348
40.076
14.9779
3.4936
-8.87882
-16.0924
-30.5009
-87.9706
-46.4106
-73.997
-69.9877
-67.3768
-54.2695
-80.7399
-93.7327
-105.44
-105.618
-104.753
-106.42
-107.767
-104.243
-120.385
-117.664
-105.811
-103.752
-104.092
-89.3742
-82.9772
-100.63
-95.3208
-70.5629
-62.6515
-36.0592
-25.6259
-18.4772
-15.0639
-50.477
-45.6416
-60.0133
0.280151
-8.96805
-9.20029
-0.23519
-17.1665
-18.9087
-22.611
-24.9604
-31.5613
-24.5055
-32.5919
-42.7118
-33.3496
-43.8936
-46.8098
-51.5606
-49.6192
19.7642
37.4881
41.19
26.2417
43.9618
46.4161
9.02417
-2.34301
-7.7418
-23.0555
-37.8089
-92.7403
-47.3678
-82.0542
-79.3038
-69.9066
-62.6529
-88.9921
-103.519
-109.617
-109.797
-111.611
-109.485
-117.696
-116.642
-110.452
-129.917
-128.695
-109.042
-103.604
-96.7691
-101.368
-86.5445
-93.6972
-103.901
-102.858
-78.7892
-64.9776
-44.9012
-36.5863
-29.0518
-17.8674
-53.4589
-49.325
-63.2192
-2.45333
-7.50099
-11.6726
-2.15338
-15.6684
-22.3121
-28.2713
-36.2714
-35.458
-40.6467
-42.7754
-43.6753
-48.861
-56.3278
-57.4098
16.9807
21.254
36.1436
24.8865
33.2511
6.74348
-3.5148
-14.7877
-22.7596
-38.7222
-101.577
-54.1726
-90.2149
-89.4589
-79.5324
-64.0185
-93.2276
-107.884
-118.944
-120.707
-124.261
-118.438
-125.689
-125.973
-121.438
-137.862
-137.465
-116.884
-114.392
-101.507
-96.8692
-107.219
-113.287
-111.6
-83.4984
-76.0546
-48.7943
-42.2861
-35.6029
-24.4003
-17.736
-58.3664
-53.1608
-70.1199
-9.53894
-11.1209
-11.1363
-23.8909
-27.114
-36.4535
-32.6438
-38.8911
-39.2337
-36.5179
-44.8299
-48.464
-50.332
-58.252
-57.9395
-62.9097
9.68239
24.4072
36.9035
33.5218
15.751
40.9793
1.81338
-9.7341
-15.3884
-31.8773
-46.2224
-109.078
-53.8863
-94.0043
-89.2951
-83.5147
-69.1262
-101.187
-116.232
-125.984
-122.856
-129.186
-120.917
-134.006
-136.741
-125.111
-149.011
-149.169
-123.636
-125.246
-128.686
-115.34
-106.801
-100.718
-117.751
-126.649
-122.37
-96.1247
-81.4893
-58.6745
-49.8136
-36.8642
-37.5484
-18.1079
-15.3379
-63.1096
-60.7448
-78.7513
-69.2866
-20.1253
-26.0275
-25.5808
-39.5115
-36.7104
-42.1833
-45.3733
-48.9802
-53.0703
-49.2489
-56.2803
-63.177
-66.7373
-66.5943
6.154
17.8009
12.5354
37.7479
38.9156
0.493162
-10.8073
-19.5438
-32.942
-48.2308
-106.856
-117.733
-60.7686
-102.582
-101.643
-77.7846
-90.8748
-68.6133
-107.391
-137.204
-132.564
-135.116
-130.967
-148.346
-142.065
-138.105
-163.108
-162.531
-140.095
-135.727
-135.185
-123.791
-118.155
-108.564
-119.445
-130.054
-97.726
-89.536
-62.0574
-60.159
-56.5903
-48.4645
-41.9884
-40.2187
-27.1921
-20.4613
-78.0151
-74.2189
-32.8739
-27.0082
-36.0941
-34.3148
-46.1142
-46.466
-51.8719
-60.1473
-62.1373
-70.5741
-72.1711
4.16305
7.91921
10.7573
41.1347
36.4582
49.7886
-7.15026
-17.3071
-25.6741
-36.8097
-56.1198
-42.2382
-118.72
-121.781
-61.7148
-106.548
-103.861
-85.5411
-97.4813
-92.1746
-73.7104
-117.079
-140.845
-138.112
-146.105
-138.273
-163.363
-152.685
-155.139
-143.663
-167.219
-166.407
-144.587
-145.642
-133.525
-119.116
-113.869
-129.521
-137.311
-101.62
-94.307
-71.1768
-68.6003
-58.2547
-56.0547
-49.7871
-34.6334
-37.0032
-23.0798
-84.1938
-33.66
-27.8821
-39.1601
-38.6265
-45.9093
-47.0843
-55.4947
-58.604
-61.9527
-73.4913
-73.0776
-78.6342
1.57254
18.2713
22.5988
24.1999
-10.6096
-19.4715
-29.4125
-37.3152
-57.5371
-50.8948
-121.641
-132.226
-71.4664
-115.204
-114.281
-83.5405
-102.933
-100.92
-119.462
-149.236
-148.682
-154.905
-149.584
-171.587
-167.972
-165.046
-157.746
-180.587
-179.49
-149.588
-155.267
-139.777
-123.659
-108.921
-120.574
-140.04
-136.568
-150.03
-99.9085
-91.7933
-72.4334
-70.2851
-63.7947
-56.7396
-53.4009
-43.4726
-33.291
-41.5783
-84.1359
-40.8531
-50.7965
-44.261
-44.6979
-51.1884
-50.7727
-58.6071
-59.5468
-63.2918
-72.0137
-78.4852
-81.1655
-80.862
-81.471
-0.930418
8.15525
6.74028
13.8843
22.3892
-15.9947
-8.2645
-24.6351
-38.6971
-62.0224
-49.6628
-130.956
-137.377
-74.0425
-118.346
-117.516
-90.0042
-110.647
-104.464
-129.108
-152.452
-169.544
-152.242
-183.005
-175.647
-178.045
-166.787
-193.082
-187.197
-160.439
-168.956
-152.303
-131.608
-116.657
-127.585
-151.729
-145.945
-157.451
-106.363
-97.0815
-78.0967
-74.4642
-66.2077
-64.0477
-53.3345
-49.1966
-36.0832
-41.6554
-90.2294
-40.8781
-47.3401
-46.8635
-41.8243
-49.7025
-56.9947
-54.4368
-58.7049
-66.1324
-74.5387
-70.7725
-73.8881
-81.1406
-87.5744
-5.00579
2.37557
9.23472
31.1063
33.2075
-19.2791
-11.6742
-26.6436
-42.6644
-32.5222
-69.0692
-62.6071
-56.1041
-135.129
-149.767
-81.7542
-132.157
-124.322
-90.3779
-101.34
-115.264
-112.204
-136.505
-163.188
-174.488
-163.227
-185.319
-192.861
-184.148
-180.502
-208.623
-203.672
-171.919
-175.096
-161.717
-131.873
-124.951
-114.839
-161.549
-153.181
-149.383
-172.106
-104.475
-95.0756
-78.6455
-77.1948
-64.1899
-63.6253
-50.4682
-43.9381
-89.1298
-51.4913
-58.7913
-46.3536
-50.6836
-56.0094
-70.3837
-68.1743
-81.0018
-76.2559
-87.4111
-91.227
-90.3353
-4.80979
0.135221
-0.851354
17.1826
0.152979
16.5866
39.6307
26.9484
-16.3177
-23.7785
-10.8517
-43.0754
-34.2364
-76.1157
-68.4105
-56.5458
-145.925
-153.281
-85.7446
-137.396
-123.288
-133.465
-96.6001
-107.733
-112.021
-146.343
-170.531
-191.805
-178.497
-196.996
-206.163
-198.573
-189.834
-222.407
-213.104
-209.196
-185.864
-187.116
-172.991
-140.138
-133.093
-115.81
-171.419
-162.679
-157.413
-112.763
-101.895
-84.4473
-79.9277
-69.564
-66.9692
-52.1708
-48.792
-97.9845
-49.6826
-58.6175
-55.2561
-65.6823
-60.2927
-64.1679
-68.3147
-80.3251
-81.2593
-87.6337
-85.8155
-91.6224
-95.9945
1.0406
-6.12791
14.2274
7.82865
12.0293
15.361
23.4798
-22.0202
-25.5011
-12.7993
-46.8771
-38.0974
-30.0753
-82.5298
-75.1869
-67.853
-51.9482
-62.9805
-160.085
-94.1869
-147.755
-129.209
-134.716
-105.059
-118.983
-150.364
-182.902
-195.606
-201.038
-181.392
-191.138
-208.812
-220.788
-208.194
-201.969
-242.666
-230.785
-223.219
-194.348
-198.435
-181.822
-148.703
-145.639
-132.92
-123.674
-181.922
-171.537
-163.766
-157.201
-111.418
-100.91
-85.3037
-81.1544
-75.4993
-74.5362
-67.6119
-60.0044
-54.9996
-99.3471
-54.3888
-61.5372
-56.3351
-68.7638
-60.9508
-66.6006
-70.0849
-76.4741
-80.2873
-78.4408
-83.2078
-88.259
-97.0365
-101.835
-100.646
4.50529
-3.01227
16.8453
7.79533
20.3472
-22.4265
-14.9589
-45.6107
-37.8695
-31.653
-84.2816
-80.6017
-78.4738
-57.0259
-65.0258
-159.923
-172.545
-95.778
-151.451
-128.374
-144.318
-105.381
-123.212
-192.589
-211.515
-215.754
-187.863
-199.624
-219.675
-237.935
-222.977
-212.255
-245.791
-256.396
-234.215
-230.852
-208.625
-194.871
-214.579
-149.055
-143.838
-124.323
-188.643
-178.985
-170.814
-163.305
-114.244
-110.239
-92.9888
-84.1154
-80.6322
-79.7568
-72.8839
-69.1553
-62.4774
-101.198
-57.1166
-62.2685
-64.7632
-63.2687
-74.8114
-77.9826
-77.1407
-81.3614
-81.2025
-88.6164
-93.6427
-94.8286
-99.641
-105.907
0.0907969
-5.07856
21.872
12.3165
20.5342
-19.2833
-28.329
-12.5652
-40.4224
-48.1212
-89.0401
-78.7972
-61.8375
-53.8973
-71.7731
-172.044
-179.373
-101.197
-162.221
-133.555
-149.327
-111.068
-120.361
-131.678
-203.472
-227.858
-214.084
-228.319
-188.037
-193.328
-206.761
-235.929
-254.623
-232.36
-225.823
-261.43
-269.407
-251.223
-250.444
-217.8
-207.518
-216.656
-157.376
-143.112
-134.651
-119.075
-187.71
-200.353
-178.357
-170.363
-112.816
-95.4507
-90.2
-82.0631
-76.4919
-74.8502
-66.9711
-108.495
-102.481
-61.1497
-63.6836
-70.5995
-73.9571
-85.418
-85.8087
-91.968
-89.8163
-95.5368
-99.2512
-105.113
-109.804
-108.532
1.15298
-8.35032
11.5542
5.45092
12.5125
24.1164
-23.4623
-30.1443
-16.1095
-36.3304
-45.8506
-92.0773
-82.9164
-63.8268
-60.8192
-71.9476
-171.836
-103.854
-161.808
-143.724
-118.123
-122.302
-136.4
-240.25
-238.027
-248.929
-194.212
-208.476
-222.726
-251.534
-256.139
-246.149
-239.148
-265.157
-273.199
-284.779
-259.81
-255.401
-234.818
-210.328
-225.372
-162.834
-148.485
-135.752
-115.39
-195.929
-209.916
-185.231
-175.503
-93.7202
-86.0425
-82.7471
-80.6239
-74.8926
-70.966
-115.315
-105.777
-68.7749
-71.3266
-68.2859
-76.5722
-88.4743
-83.7242
-85.3065
-90.6548
-100.784
-101.747
-102.743
-110.509
-116.023
-1.36289
-9.12843
17.0707
0.31776
9.21008
20.5786
-27.789
-20.5641
-14.6619
-40.1473
-48.2154
-98.1771
-88.4432
-84.5922
-69.5138
-60.3273
-77.7721
-178.488
-108.039
-165.841
-149.284
-114.706
-127.413
-145.979
-134.193
-253.248
-239.111
-258.665
-205.472
-188.647
-223.849
-227.602
-272.845
-246.678
-279.364
-292.844
-304.139
-289.967
-277.748
-273.547
-241.202
-219.605
-228.429
-238.508
-173.755
-162.659
-146.293
-156.224
-124.65
-139.851
-206.519
-193.676
-217.871
-183.6
-93.5646
-91.5085
-82.261
-80.4851
-72.5431
-113.988
-124.794
-108.609
-104.471
-73.2864
-77.7082
-83.3479
-88.3538
-82.9615
-95.9426
-92.942
-99.3791
-104.787
-120.114
-119.799
-118.867
-6.09944
-2.86247
16.9999
10.28
18.0351
-28.9141
-23.8666
-16.2859
-37.4588
-53.0615
-45.9539
-103.084
-95.339
-85.7585
-70.2328
-63.5253
-82.4256
-176.168
-108.555
-162.437
-120.522
-127.978
-149.5
-143.548
-264.767
-244.684
-281.492
-209.033
-222.496
-200.532
-240.826
-242.436
-287.983
-262.939
-292.961
-306.044
-309.555
-304.243
-280.334
-278.182
-254.306
-239.568
-244.694
-181.373
-173.489
-158.597
-162.173
-128.872
-139.042
-212.423
-196.671
-229.826
-192.143
-98.8121
-91.7458
-96.2325
-88.5989
-79.4993
-117.92
-130.724
-111.731
-108.174
-84.6676
-86.0324
-90.9056
-97.3223
-102.154
-97.424
-111.719
-107.664
-118.416
-111.608
-117.945
-125.019
-9.77561
0.25044
-6.43494
15.9986
8.10651
17.5309
-31.5004
-21.4562
-13.9893
-40.8314
-55.7872
-48.8004
-100.432
-94.02
-89.0153
-66.6311
-79.7514
-61.0759
-187.316
-114.216
-166.938
-119.157
-133.253
-161.07
-147.16
-259.107
-282.278
-291.107
-220.013
-225.689
-199.239
-243.519
-300.217
-272.257
-309.364
-319.829
-328.455
-297.452
-287.924
-268.365
-264.954
-241.438
-258.029
-182.904
-191.846
-176.451
-158.909
-172.411
-142.417
-206.389
-224.155
-233.632
-90.7871
-98.6272
-88.1367
-123.583
-120.192
-132.739
-116.451
-109.234
-101.393
-98.9706
-88.35
-98.3486
-96.7644
-104.445
-114.23
-109.693
-109.053
-113.105
-125.19
-128.569
-128.537
1.05169
-6.1811
7.65636
6.92294
20.3437
-30.0166
-24.8465
-15.4955
-37.9227
-52.9568
-45.9699
-106.06
-97.608
-88.4784
-66.8963
-81.1436
-63.0335
-186.541
-112.565
-175.99
-125.704
-131.381
-143.03
-165.733
-158.853
-276.087
-299.654
-312.122
-228.977
-233.571
-208.595
-256.842
-316.149
-287.319
-324.041
-313.121
-332.501
-340.283
-343.351
-310.661
-303.808
-280.038
-275.911
-252.426
-260.192
-189.53
-198.367
-185.988
-155.005
-168.229
-174.441
-139.524
-210.934
-226.766
-245.247
-97.0157
-97.5069
-129.893
-127.482
-135.185
-121.464
-114.967
-108.249
-95.8477
-98.2302
-100.431
-108.02
-105.192
-115.67
-125.206
-118.66
-122.751
-131.084
-135.013
-1.8682
2.50276
-8.54178
14.8257
12.196
14.6366
-33.1391
-24.0219
-19.725
-11.7497
-40.5921
-53.9167
-50.2538
-103.407
-95.8373
-89.6064
-71.0821
-77.0805
-59.4854
-204.271
-119.387
-174.199
-125.822
-137.079
-143.463
-158.758
-273.262
-295.82
-313.526
-325.132
-244.478
-221.896
-245.501
-270.493
-338.813
-297.833
-345.462
-328.26
-349.692
-353.792
-351.197
-327.369
-316.836
-293.286
-285.109
-253.048
-271.356
-197.854
-206.197
-191.159
-158.991
-172.297
-181.031
-144.723
-219.623
-233.824
-246.987
-102.325
-129.556
-127.571
-137.29
-118.318
-113.457
-104.005
-99.6668
-103.585
-105.433
-108.246
-114.776
-122.076
-121.964
-125.945
-137.042
-133.975
-139.485
-1.85431
0.387944
-7.42703
9.54496
13.8211
3.56635
11.7253
-30.7772
-26.4034
-20.7817
-13.6847
-39.299
-49.6658
-109.089
-97.8219
-84.5809
-72.013
-80.0282
-61.4576
-206.366
-117.863
-180.522
-133.483
-152.955
-167.743
-293.52
-302.678
-334.9
-346.743
-240.69
-252.314
-232.838
-265.454
-292.031
-352.841
-314.251
-353.921
-345.515
-360.245
-367.84
-336.176
-330.865
-304.562
-300.711
-284.603
-267.788
-274.637
-203.372
-213.194
-188.85
-200.584
-161.409
-152.977
-180.952
-168.422
-144.017
-227.523
-239.655
-251.2
-101.681
-137.081
-131.492
-115.412
-130.473
-111.553
-104.614
-106.672
-111.497
-118.122
-126.379
-119.918
-132.469
-134.327
-139.29
-142.843
-142.671
-3.72681
2.46814
-9.29627
10.4462
8.09825
4.87201
-33.7644
-24.8407
-17.235
-12.4644
-41.7059
-45.3841
-53.2875
-108.299
-102.668
-92.25
-86.5712
-66.6029
-78.1195
-58.4872
-225.133
-197.494
-124.195
-180.785
-129.448
-152.191
-176.876
-300.356
-324.918
-350.708
-342.308
-253.24
-263.476
-295.315
-371.613
-315.341
-369.961
-367.073
-380.187
-386.858
-380.374
-361.57
-335.007
-309.009
-293.251
-270.017
-286.762
-210.217
-222.982
-193.917
-204.644
-162.383
-155.943
-182.842
-174.103
-147.096
-235.487
-247.773
-260.335
-106.37
-134.818
-133.636
-117.966
-129.817
-111.603
-107.046
-110.293
-118.509
-120.229
-131.427
-121.853
-125.92
-136.067
-138.029
-143.668
-149.227
-2.85925
-0.409267
-7.3694
16.7271
13.0158
6.44052
2.20717
-32.5373
-24.9374
-20.6272
-13.7275
-40.0416
-46.4195
-53.6093
-111.105
-104.287
-99.6027
-84.3163
-68.849
-79.0679
-61.2581
-221.455
-201.522
-122.151
-192.391
-138.623
-162.492
-189.637
-173.613
-324.711
-336.515
-378.123
-360.267
-278.734
-256.905
-281.003
-315.999
-398.658
-328.175
-386.677
-373.585
-373.771
-405.928
-404.554
-368.889
-349.513
-304.879
-321.425
-273.327
-294.474
-216.738
-229.198
-202.365
-191.397
-212.933
-164.997
-154.203
-180.441
-170.626
-147.752
-241.16
-256.435
-262.524
-135.572
-125.62
-115.796
-131.385
-112.151
-112.788
-115.7
-125.495
-131.854
-128.236
-132.856
-140.78
-140.529
-138.633
-148.141
-152.623
-152.966
-4.46777
1.32138
-8.62557
10.1645
5.12192
4.91488
-36.0618
-27.8055
-25.4386
-19.8548
-10.9298
-16.1552
-40.8201
-49.5206
-43.4508
-55.3857
-107.665
-98.5933
-83.7487
-75.0893
-65.8401
-59.1887
-211.609
-238.132
-124.61
-142.266
-163.352
-193.351
-186.65
-330.772
-353.076
-379.293
-398.91
-287.573
-270.2
-312.2
-412.576
-331.396
-411.363
-391.836
-392.625
-414.01
-412.163
-371.182
-365.226
-312.445