/*--------------------------------*- C++ -*----------------------------------*\
| =========                 |                                                 |
| \\      /  F ield         | OpenFOAM: The Open Source CFD Toolbox           |
|  \\    /   O peration     | Version:  v1912                                 |
|   \\  /    A nd           | Website:  www.openfoam.com                      |
|    \\/     M anipulation  |                                                 |
\*---------------------------------------------------------------------------*/
FoamFile
{
    version     2.0;
    format      ascii;
    class       surfaceScalarField;
    location    "10000";
    object      phi;
}
// * * * * * * * * * * * * * * * * * * * * * * * * * * * * * * * * * * * * * //

dimensions      [0 3 -1 0 0 0 0];
oriented        oriented;


internalField   nonuniform List<scalar> 
118861
(
2.69694e-10
2.8039e-10
3.0151e-10
3.25061e-10
3.33737e-10
3.33849e-10
3.33849e-10
3.29903e-10
3.21431e-10
3.34448e-10
3.90553e-10
-2.64625e-10
2.67141e-10
-2.63993e-10
-8.38426e-09
9.21025e-11
-3.70953e-10
1.96985e-10
-3.41189e-11
7.1476e-12
1.02614e-09
3.14711e-12
-1.96021e-09
2.92038e-09
-1.28499e-09
-8.20794e-10
5.08647e-10
-6.04468e-09
4.25079e-09
2.24793e-09
1.51828e-11
4.16224e-09
4.14194e-11
7.1054e-09
8.96974e-11
1.15683e-08
-3.03164e-10
1.71472e-10
-5.42063e-09
-4.15534e-08
-4.9695e-08
-5.86341e-08
7.99934e-07
1.01602e-06
-1.06384e-07
1.28217e-06
-1.27802e-07
1.3062e-06
6.24602e-07
8.7327e-08
-6.85728e-08
1.60964e-06
-1.51832e-07
1.63668e-06
-2.18897e-07
3.60244e-07
2.67725e-07
-9.17963e-10
-3.42061e-09
1.92362e-09
3.59239e-07
4.7367e-07
-1.09131e-08
4.75708e-07
3.41293e-08
6.15194e-07
-6.17178e-07
-1.29511e-08
7.89858e-07
-7.91792e-07
-1.49351e-08
-1.00709e-06
-1.6869e-08
-1.27223e-06
-1.8861e-08
3.61266e-07
2.74216e-08
4.82416e-07
7.04871e-08
3.6722e-07
5.57787e-08
1.03744e-06
1.80392e-07
8.1899e-07
1.46747e-07
6.41442e-07
1.17578e-07
6.37615e-08
9.43464e-08
-1.32279e-10
1.37002e-07
-1.0249e-10
1.3688e-07
9.43166e-08
3.80062e-09
1.94122e-07
-3.22203e-10
2.02205e-11
1.9382e-07
-5.24475e-09
1.95539e-07
2.17611e-06
2.20551e-06
2.22631e-06
-2.23419e-06
2.67129e-07
8.88576e-09
-6.964e-09
2.6905e-07
2.1468e-08
-1.63156e-08
2.74203e-07
4.31376e-08
-2.13871e-06
1.07109e-06
8.48159e-07
1.05398e-07
1.3447e-06
-1.34905e-07
8.72875e-07
1.1006e-06
-1.12184e-06
-5.73606e-08
1.68057e-06
2.0953e-07
-1.69501e-07
1.7206e-06
1.36446e-07
1.3793e-06
1.04841e-07
-7.86077e-08
1.40553e-06
-4.77424e-08
1.75221e-06
9.08179e-08
-6.68051e-08
1.42459e-06
1.77622e-06
4.26386e-08
-2.66883e-08
1.79217e-06
-2.25785e-08
7.02363e-09
-7.51926e-10
2.83781e-08
2.58023e-09
4.45003e-08
-7.81576e-09
1.68929e-08
-1.16525e-08
1.83776e-08
1.62611e-09
1.9985e-07
3.24988e-08
-2.37853e-08
4.11396e-09
1.57579e-11
2.42132e-11
-5.06865e-12
4.12206e-09
-6.52673e-11
7.03609e-09
-1.39362e-10
4.5712e-10
-2.62855e-10
2.26747e-09
4.19639e-09
-1.38468e-10
7.15958e-09
-2.97624e-10
1.16486e-08
9.83499e-10
-5.6294e-10
4.42636e-08
-4.09918e-07
1.21225e-08
3.13063e-07
3.16814e-08
-3.08552e-07
8.89571e-07
3.31291e-08
4.16492e-07
-6.04349e-09
5.34388e-07
-1.86962e-08
4.06638e-08
-2.79847e-08
5.43677e-07
-9.51519e-09
6.9936e-07
2.23576e-08
-1.47285e-08
1.03343e-07
1.48673e-07
-2.00154e-08
2.08563e-07
-2.86276e-08
1.57285e-07
2.19779e-07
2.21458e-08
-1.51033e-08
2.26821e-07
7.61121e-09
1.62344e-07
4.60127e-09
4.72237e-08
7.04078e-08
1.36249e-08
-9.0368e-09
1.90203e-08
2.9332e-08
5.09241e-09
-3.20967e-09
2.02887e-08
3.12147e-08
5.83332e-09
-3.64832e-09
1.09733e-07
1.00446e-08
1.13255e-07
2.66148e-09
2.29831e-07
3.75905e-09
2.84841e-07
-2.99016e-07
-3.9843e-08
1.64284e-07
2.26281e-09
1.14446e-07
1.29981e-09
1.0355e-09
5.1105e-11
-1.06959e-11
1.07599e-09
-2.11209e-11
4.35525e-09
7.42489e-09
-5.87182e-10
1.20692e-08
1.94123e-09
-1.11095e-09
2.35484e-09
2.73501e-10
-1.01071e-10
1.15594e-09
-2.35509e-11
7.94872e-09
8.53987e-09
2.59632e-10
-1.18139e-10
1.24506e-09
4.26604e-11
-8.67516e-12
4.66893e-09
6.57545e-10
-5.02088e-09
2.52735e-09
3.05405e-10
-2.72008e-09
-1.12671e-10
1.28994e-08
2.19297e-09
-1.24869e-09
2.1744e-08
1.38433e-08
9.08354e-10
-5.04312e-10
3.33992e-08
-3.44163e-08
-1.55612e-09
5.04272e-08
-2.57324e-09
7.49956e-08
6.52251e-09
-4.14311e-09
5.1997e-08
-3.9689e-10
7.7375e-08
1.47076e-09
-7.79207e-10
3.46197e-08
5.23796e-08
-1.83706e-10
7.80666e-08
7.08884e-10
-3.68653e-10
5.16237e-09
8.78455e-09
-1.48348e-11
2.23918e-08
1.93522e-10
1.42473e-08
8.94841e-11
-3.84197e-11
1.27905e-09
-1.12222e-13
2.79556e-09
4.7827e-12
-1.15759e-12
2.79928e-09
1.28009e-09
2.7673e-13
-5.27795e-16
5.17242e-09
-1.67422e-12
2.24959e-08
8.73196e-11
2.25441e-08
3.47161e-08
5.11712e-10
8.80819e-09
-5.83416e-12
1.42984e-08
3.91176e-11
-1.61149e-11
8.81847e-09
1.43214e-08
-3.23292e-10
1.91401e-10
5.17657e-09
-1.03992e-10
2.80067e-09
-4.93753e-11
9.00343e-07
7.06989e-07
2.03815e-09
9.05382e-07
4.19964e-07
4.20416e-07
3.15348e-07
-2.64687e-09
5.4889e-07
-8.21214e-10
2.19406e-09
5.50263e-07
1.67325e-08
7.09849e-07
-2.38868e-08
2.04096e-08
1.13646e-06
1.50496e-08
-7.077e-09
1.14443e-06
2.65865e-08
3.15293e-07
-1.32581e-08
-1.02142e-08
7.87865e-08
9.01441e-09
-6.44675e-09
1.15577e-07
-2.90053e-08
1.65247e-07
5.25647e-08
7.67566e-10
7.84068e-08
1.09377e-09
1.15037e-07
-1.89617e-09
1.48009e-09
2.31328e-07
-2.59211e-09
-2.31029e-07
2.293e-09
1.28041e-09
-1.8565e-11
3.94617e-12
7.80205e-08
-7.67808e-08
1.14621e-07
-1.13009e-07
4.02868e-09
1.6485e-07
-7.68142e-09
-1.62808e-07
5.6396e-09
5.22385e-08
-2.78905e-09
3.44605e-08
-1.86511e-09
5.1315e-08
4.44113e-09
2.23557e-08
-1.20044e-09
1.41896e-08
-7.38247e-10
8.73106e-09
-4.28232e-10
1.26579e-09
8.47201e-12
2.76986e-09
4.01201e-11
5.12219e-09
-2.28857e-10
1.07632e-10
2.18935e-08
3.37959e-08
2.95425e-09
-1.8935e-09
2.26264e-08
5.28018e-08
1.97092e-08
3.48569e-08
1.29763e-08
-8.24822e-09
8.53168e-09
1.38796e-08
1.16061e-09
-6.71423e-10
5.00096e-09
3.57765e-10
1.23414e-09
-1.30164e-11
2.70235e-09
1.67803e-10
-6.22227e-11
9.02682e-07
7.06371e-07
2.74686e-08
1.14323e-06
3.43074e-08
-3.04475e-08
9.05661e-07
4.16942e-07
5.46586e-07
2.47368e-08
-5.49451e-07
-2.18714e-08
7.09103e-07
1.90916e-07
-7.43287e-07
-1.56732e-07
5.79795e-07
1.71951e-07
4.20077e-07
1.26388e-07
4.46759e-07
1.34754e-07
3.12249e-07
1.87366e-08
1.4429e-06
1.14709e-06
2.72826e-07
-2.29362e-07
1.65863e-07
-4.13866e-08
8.80825e-08
1.81691e-07
1.27959e-07
3.94613e-08
-2.69059e-08
2.28496e-07
1.53995e-08
-1.20694e-08
2.31826e-07
-5.72142e-08
2.51256e-07
-5.60868e-08
3.15586e-07
9.97051e-08
-7.66446e-08
3.38647e-07
1.03322e-07
-7.7238e-08
9.44107e-07
-2.15369e-07
1.19055e-06
-2.6558e-07
1.49251e-06
-3.23406e-07
9.94317e-07
1.24838e-06
-4.95848e-07
7.86705e-07
4.15137e-07
4.78191e-07
6.16993e-07
3.43195e-07
-2.79464e-07
-3.90067e-07
5.95343e-08
1.78159e-08
1.40515e-07
2.72407e-07
1.98316e-07
1.32861e-07
-9.79943e-08
9.71725e-08
6.99174e-08
6.58856e-08
4.82292e-08
3.64731e-07
2.23418e-07
-1.74634e-07
1.43689e-08
5.02333e-09
8.84534e-09
2.89186e-09
1.28335e-09
-5.61053e-11
2.80793e-09
-2.66842e-10
5.19115e-09
1.53613e-09
-7.18895e-10
3.25999e-09
1.49408e-09
2.18185e-10
-4.55069e-11
3.95848e-08
1.14645e-08
2.58513e-08
7.14716e-09
1.65006e-08
4.28312e-09
2.87153e-08
4.39021e-08
3.21377e-08
-2.06197e-08
1.02011e-08
2.43315e-09
6.00839e-09
1.27859e-09
-5.92521e-10
1.83506e-08
1.26467e-08
1.13556e-08
7.31627e-09
4.24769e-08
1.21124e-10
6.37727e-08
2.6599e-09
2.79181e-08
9.57616e-11
-2.7945e-08
4.25022e-08
1.80368e-09
-4.31207e-08
-1.18521e-09
6.46289e-08
-6.65712e-08
-3.95989e-09
9.54572e-08
-9.81031e-08
-5.90182e-09
1.38324e-07
1.20045e-08
-1.41781e-07
-8.54773e-09
1.80598e-08
6.89376e-11
-1.80828e-08
1.14365e-08
4.59045e-11
-1.14542e-08
-2.82143e-11
6.66435e-07
8.06822e-08
-6.86681e-07
-6.04363e-08
3.79861e-07
-3.97336e-07
-5.40177e-08
4.97124e-07
9.25843e-08
-5.18215e-07
-7.14928e-08
1.43623e-06
-2.67103e-08
-1.43731e-06
2.77898e-08
1.7963e-06
4.81808e-08
-3.98942e-08
1.80459e-06
-1.86182e-06
-3.22439e-07
1.01411e-09
-1.0164e-09
-6.31538e-13
2.22169e-09
7.65653e-12
-2.22642e-09
-2.92751e-12
4.3606e-10
5.34237e-07
6.80723e-07
-4.34968e-07
4.13514e-07
3.45099e-07
3.1418e-07
2.69076e-07
2.36801e-08
1.47734e-08
2.66581e-08
1.94269e-08
1.35418e-08
8.52181e-09
5.54201e-08
3.66884e-08
4.83217e-08
-3.59567e-08
1.1886e-07
8.19771e-08
8.75445e-08
-6.50209e-08
1.68591e-07
-1.17514e-07
2.33182e-07
2.06608e-07
-1.56624e-07
5.77354e-10
4.07101e-09
6.69372e-09
3.89846e-09
-8.76589e-09
3.63432e-09
1.82629e-09
-4.78407e-09
1.66676e-09
6.76543e-10
-2.20201e-09
-1.41294e-10
-2.88177e-06
4.6649e-05
5.63e-05
-5.91817e-05
-1.68359e-05
6.34848e-05
6.52007e-05
-1.40958e-05
-8.90072e-06
-3.18099e-05
-2.73718e-05
5.42215e-05
7.75807e-05
5.11049e-05
9.96911e-05
-5.55427e-05
-0.000108592
-3.57674e-05
-1.18798e-05
-6.64064e-05
8.39553e-06
8.79639e-05
7.56632e-06
8.49519e-05
7.00143e-05
0.000106648
4.41484e-05
-4.21855e-05
2.77388e-05
-4.76472e-05
-5.80109e-05
-2.76456e-05
-3.49175e-05
9.25183e-05
4.5876e-05
0.000100089
2.41383e-05
6.36883e-05
4.29592e-05
-7.21543e-05
0.000131485
-8.73365e-05
-8.03593e-05
3.81738e-05
-1.99084e-05
1.15422e-05
-6.18401e-05
3.82922e-06
-7.59996e-05
-3.14505e-05
7.27194e-06
-3.41696e-05
-3.04976e-05
0.000145965
8.78266e-05
0.000115114
-2.54924e-06
5.93306e-05
0.000122699
-9.87183e-05
1.13818e-05
-4.35968e-06
6.52206e-05
-8.45256e-05
-5.02979e-05
-7.21704e-05
-2.41786e-05
-2.01251e-05
-3.67203e-06
-2.92132e-05
-2.47549e-05
0.000128729
9.03759e-05
1.72357e-05
0.000112564
-9.97554e-06
0.000140341
-8.10101e-05
-0.000104187
2.39811e-05
0.000115569
-0.000196568
-6.95802e-05
-1.9305e-05
-3.01728e-05
1.28299e-05
-6.74727e-05
-4.69772e-06
-5.96994e-05
2.41705e-05
-4.43037e-05
-2.78425e-05
-3.75062e-05
-4.45825e-06
-2.31043e-05
-3.06275e-05
0.00025048
0.000107612
-3.09119e-05
0.00012254
0.000130365
0.000115557
-8.02059e-05
-8.09987e-05
-9.88089e-06
6.03769e-05
-0.000152177
-7.96819e-05
6.38651e-05
-4.30027e-05
-5.46428e-05
-6.43971e-05
-1.54803e-05
-2.01333e-05
9.66371e-06
-3.56135e-05
7.5232e-06
-4.19645e-05
-2.88707e-05
-2.86829e-05
9.65978e-05
0.000153882
0.000138523
-9.13995e-05
9.16279e-05
0.000221214
-5.53302e-05
0.000185695
-9.9714e-05
-0.000105656
-0.000206946
7.19707e-05
0.000125948
-0.00020957
-7.3746e-05
-9.17997e-05
-7.293e-05
-1.58168e-05
-2.75224e-05
-1.98488e-05
-4.48369e-05
-3.4794e-05
-5.84565e-05
-1.95602e-05
-4.73712e-05
-2.59498e-05
-3.44413e-05
-1.87846e-07
-3.6284e-05
-2.66463e-05
0.000187997
0.000287468
4.7124e-05
0.000191342
0.000165883
8.59813e-05
0.000187444
0.000103914
-0.000134976
-8.36224e-05
-1.52895e-05
-1.88697e-05
5.95518e-05
-8.87468e-05
-7.96309e-05
-7.80167e-05
-7.3321e-05
1.84268e-06
-3.69858e-05
-3.64718e-05
1.71592e-05
2.56783e-05
-4.38054e-05
-2.33327e-05
-4.87589e-05
8.06477e-05
0.00010735
0.000158708
0.000238466
-2.15604e-05
0.000273425
-0.000132237
0.000236151
-0.000188444
9.87368e-05
-0.000146801
1.18256e-05
0.000156462
-0.000168701
8.50786e-05
-0.00020535
-7.48413e-05
-0.000117606
-8.64722e-05
-2.9195e-05
-6.71013e-05
-1.25296e-05
-4.59615e-05
-3.20551e-05
-3.93527e-05
-3.63352e-05
-1.41335e-05
-3.51431e-05
-1.93126e-05
-1.81271e-05
2.54262e-05
-4.63338e-05
-3.18183e-05
0.000166964
0.000264019
-8.63161e-05
0.000266057
0.000260441
-2.55532e-05
0.000166884
0.000269605
1.29842e-05
7.3113e-05
4.77064e-05
-4.80645e-05
-0.000144637
8.42928e-05
-1.22386e-05
-0.000120271
0.000169038
-3.54886e-05
-3.11343e-05
7.67967e-05
-0.000115667
-5.29678e-05
-5.84911e-05
-7.14079e-05
-4.13608e-06
-5.04686e-05
1.98727e-05
2.51578e-05
-5.50158e-05
-4.44705e-05
7.29913e-06
-1.45156e-05
-2.92365e-05
-4.3662e-05
0.000172836
2.29989e-05
0.000143965
0.000177703
-0.000162116
0.000234888
-0.000102721
0.000222575
0.000282589
-0.000174869
0.000198867
-0.000125754
7.24243e-05
-0.000132357
-6.03441e-05
0.000102462
-0.000181277
4.87669e-05
-0.000249508
-0.000112285
-0.000103559
-3.88705e-05
-5.3712e-05
-3.05959e-05
-3.28184e-05
-2.01495e-05
-5.4355e-05
-7.5544e-05
-2.9858e-05
-3.71713e-05
2.0782e-05
-4.2344e-05
-3.52975e-05
1.44255e-05
-4.11323e-05
-3.84338e-05
0.000195835
0.000306081
0.000228455
1.55869e-05
0.000264761
6.4326e-06
0.000119854
1.78278e-05
2.39982e-05
-0.000204579
0.000123754
-5.9933e-05
5.62382e-05
-0.000162806
-7.88146e-05
-0.000200741
-9.25826e-05
1.30035e-05
-0.000125289
-4.98466e-05
1.59679e-05
-6.34143e-05
-7.45045e-05
-1.18707e-05
-5.5973e-05
-1.95709e-05
-4.14886e-05
-4.58259e-05
5.17273e-06
-4.60765e-05
-2.15621e-05
-2.0872e-05
-2.69855e-06
-3.58437e-05
-5.36995e-05
0.000207983
0.00013565
0.000170431
-0.000143168
0.000244042
0.000271194
0.000228577
-0.000205411
0.000325265
-0.000227627
0.000245454
-8.08255e-05
-0.000116171
5.75506e-05
-0.000106568
-0.000164282
8.54673e-05
-0.000215578
1.48374e-05
-7.9579e-05
-8.38001e-05
5.42337e-05
-0.000107397
-4.74464e-05
-6.26338e-05
-1.79374e-06
-6.78437e-05
-3.31782e-05
-6.10596e-05
-4.56526e-05
2.50628e-07
-4.09038e-05
3.64678e-05
2.67387e-05
-5.80299e-05
4.93879e-05
-4.76107e-05
-5.20864e-05
1.78558e-05
-5.10129e-05
-4.18046e-05
0.000343633
0.0003136
0.00025398
0.000100874
1.72133e-05
0.000315375
2.31664e-05
9.76389e-05
-6.99205e-05
0.000324593
-0.00026786
0.000244696
0.000239438
-0.000325522
-5.86206e-05
4.20957e-05
-0.000114109
7.54082e-06
-0.000141362
-2.29203e-05
-0.000130111
0.000148503
-0.0002246
-0.000133813
-5.06219e-05
-7.62909e-05
-0.000100716
-5.31634e-05
-6.44276e-05
-4.46097e-05
-2.32341e-05
-4.36631e-05
2.37998e-05
-9.42377e-05
-4.5402e-05
-2.07644e-05
-6.61664e-05
-4.43604e-06
-3.12912e-05
-4.89921e-05
1.77722e-06
-3.42307e-05
-9.20824e-06
-3.89689e-05
-3.87725e-05
0.000213918
0.000163599
0.000180034
9.96816e-05
0.000354854
-0.000304612
0.000332588
-0.000226954
0.000291026
0.000254672
-2.31636e-05
-8.6084e-05
-7.20131e-05
-0.000133821
6.43797e-05
-0.000171423
1.83921e-05
-0.000126713
-9.78868e-05
-5.75218e-05
-0.000126913
9.66934e-05
-0.00015388
-6.84094e-05
-6.68972e-05
-4.93997e-06
-7.0438e-05
-3.2922e-05
-7.06025e-05
1.77009e-05
-5.51338e-05
-4.72149e-05
4.92557e-05
-6.7765e-05
3.35343e-05
-7.19513e-05
-5.8464e-05
-1.96454e-07
-3.1206e-05
-3.58846e-05
-4.75731e-05
0.000377516
0.000479364
0.000404294
0.000377007
5.02419e-05
0.0005233
-4.44189e-05
6.40721e-05
-0.000268628
0.000249004
-0.00028842
0.000265257
-0.000346053
-0.000335088
-0.000136393
-6.94411e-05
6.62462e-05
-0.000130269
-4.11545e-05
-0.000108321
7.16912e-05
-0.000220972
4.46206e-05
-0.000169578
-0.000154215
-9.39908e-05
-5.71863e-05
-0.000104675
-6.34695e-05
-1.54686e-05
-7.18371e-05
3.35747e-05
-0.00010336
-3.74329e-05
2.47364e-05
-7.03121e-05
-1.85093e-05
-3.84169e-05
-2.7258e-05
-3.14024e-05
-3.62926e-05
1.16885e-05
-4.47722e-05
-4.42057e-05
0.000188085
0.000247357
0.00013016
0.000326958
0.000291278
7.73358e-05
0.000427249
-0.000432334
0.000478881
0.000410125
-0.000528111
0.000259484
-3.94162e-05
-8.07957e-05
-0.000114116
-0.000135687
-3.17182e-05
-6.40224e-05
0.000103374
-0.000152942
7.53602e-05
-0.000144528
-0.000149281
-0.000124957
-2.08239e-05
-0.000133391
-3.82044e-05
-4.24366e-05
-5.57865e-05
-0.000161861
0.000105779
-9.70442e-05
-8.73058e-05
3.28792e-05
3.13712e-05
-6.97853e-05
-4.55757e-05
-5.58813e-05
3.7372e-05
-6.43415e-05
-7.20538e-05
2.59245e-05
1.31981e-05
-6.5671e-05
-4.04561e-05
4.8902e-06
-2.46041e-05
-5.66566e-07
-4.13447e-05
0.000435442
0.000457117
-3.61204e-06
0.000459659
0.00050967
-5.08489e-06
0.000429028
4.9853e-05
-0.000117987
-0.000298556
0.000558039
-0.000546807
-0.0003341
0.000273488
-0.000312904
0.000253304
-0.000352923
0.000105232
-0.000278727
-0.000219348
7.15381e-05
-0.000167405
2.00577e-05
-0.000139383
-0.0001351
-4.95681e-05
-6.91681e-05
1.01421e-05
-0.000220819
-0.000126603
-9.09547e-05
-3.46056e-05
-8.0641e-05
-8.71577e-05
-5.6082e-05
-4.19857e-05
-3.84141e-05
-5.50585e-05
-5.44266e-05
2.64781e-05
-0.000109485
9.78968e-06
-2.69694e-05
6.11962e-05
3.42268e-05
-4.61293e-05
-5.24729e-05
3.14185e-05
-3.55659e-05
3.58067e-05
-5.60226e-05
-3.63733e-05
-3.88495e-05
0.000439054
0.000453505
0.000696102
7.82254e-05
0.000638623
-0.000128954
-0.000687972
0.000423943
0.00059666
-0.000264028
0.000234936
-0.000571779
0.000273224
1.12325e-05
0.000469966
-6.06119e-05
-3.41772e-05
-9.96188e-05
-0.000173495
-0.00014781
8.6804e-05
-0.000187463
-0.000119325
9.55331e-05
-0.000184668
-0.000164701
2.1678e-05
-0.000210677
-0.000142886
-2.00438e-05
-5.63491e-05
-0.000106559
8.56166e-06
-0.000115247
-9.57193e-05
-8.03998e-05
-8.3007e-05
-5.14065e-05
-1.19025e-05
-6.4203e-05
-7.89601e-06
-4.14737e-06
-4.45769e-05
-2.02159e-05
1.59696e-05
-6.01438e-05
2.37705e-05
-6.64452e-05
4.26548e-05
-5.48191e-05
-3.99756e-05
-3.12735e-05
0.000360829
0.000362799
4.68576e-05
0.0004423
9.07063e-05
0.000774328
0.000196324
0.000559018
-0.000633211
0.000332631
-0.000336843
0.000356248
-0.000196742
0.000481198
0.000237899
-0.000455867
-0.000298511
0.000267211
-0.000301388
0.000121155
0.000133061
-0.00029465
-0.000280871
-0.000100659
4.19496e-05
-0.000141003
-0.000131753
-8.91345e-05
-0.000143023
-7.89239e-05
-9.72449e-05
-0.00016293
-0.000162908
-0.000106685
-6.55332e-05
-3.01861e-05
-3.71725e-05
-1.8804e-05
-4.32272e-05
-7.61055e-05
3.51295e-05
3.4478e-05
-8.65361e-05
-4.23741e-05
-4.87243e-05
4.62293e-05
-4.41742e-05
-4.26746e-05
-1.21643e-05
-3.64911e-05
-8.70208e-06
-2.86051e-05
-4.6605e-05
0.000313971
0.000409657
0.000533006
-3.92071e-05
0.000460998
0.000829534
-7.41928e-05
0.000648976
-0.000291611
0.000624243
-0.000524286
1.94052e-05
0.000251515
0.000428764
-0.000448257
0.000558144
-0.000167778
-0.000217968
-0.000352116
-3.12995e-05
-0.000180233
-0.00016159
-0.000183626
-0.000142609
-9.90533e-05
-0.000220888
8.27744e-05
4.06007e-05
-0.000225798
-9.13746e-05
-0.000176169
-0.00013298
-2.99495e-05
-0.000111903
-3.62902e-05
-9.58005e-05
-6.71076e-05
-9.74095e-05
-1.52782e-05
-7.03947e-05
-5.0255e-05
-6.73587e-05
2.48951e-05
-4.24636e-05
-6.20313e-05
-4.0976e-05
-5.2058e-05
-2.49499e-06
-3.81742e-05
-4.19989e-06
-4.27168e-05
-3.34403e-05
-7.68314e-06
-9.23432e-06
3.6067e-05
-4.86553e-05
-4.4769e-05
1.79999e-05
-4.40455e-05
-4.10189e-05
0.000292695
0.000353178
0.00045442
0.000116961
0.000504819
7.85864e-05
0.000421791
0.000324716
0.000450093
0.000357364
9.99571e-05
0.000488038
-0.000409359
-0.000306629
-1.94929e-05
-0.000362928
0.000390366
0.000134147
-0.000362598
-0.000383415
0.000123296
-0.000342782
0.000109506
-0.000303528
-0.000271096
-9.22512e-05
-0.000128194
-0.000139654
-3.07057e-05
-0.000138113
-0.000185197
8.04292e-05
-0.000267543
-0.000141853
-3.55708e-05
-0.000132091
-0.000164517
-8.56728e-05
-3.88365e-05
-7.51501e-05
4.00621e-05
-0.000104495
-8.10381e-05
-9.34126e-06
-7.39951e-05
-4.06692e-05
-4.69167e-05
3.8399e-05
-4.11234e-05
1.19666e-05
-5.97135e-05
5.04792e-05
-7.90681e-05
-5.309e-05
-1.25884e-05
-2.67691e-05
-3.02664e-06
-3.83911e-05
-4.76859e-05
0.000645874
0.000571381
0.000583405
0.000883198
0.000953012
-8.70776e-05
-0.000628296
0.000863931
0.000587995
-0.000413838
0.000608302
-0.000130674
-4.67615e-05
5.62991e-05
0.000340794
-0.00038242
-0.000217936
-0.000228451
-4.06326e-05
-0.000219487
-0.000194022
-0.000142902
-0.000220445
-0.00017036
-0.000218542
-2.38071e-05
-0.000150541
-2.36809e-05
-0.00016139
-0.000187114
-0.000177423
-5.16999e-05
-5.83319e-05
-4.68363e-05
-8.03908e-05
-0.000106185
-0.000113987
-6.44328e-05
-1.03459e-05
-7.04297e-06
-7.47787e-05
-8.33364e-05
-8.51771e-06
-8.47161e-05
-4.77469e-05
-2.85889e-05
3.49251e-05
-6.56784e-05
3.3666e-05
-6.16942e-05
-3.66927e-05
9.29483e-06
-4.03357e-05
-4.51146e-05
-6.26144e-05
0.000378771
0.000359305
0.000267102
0.000410455
0.000160925
0.000670483
0.000865934
0.000235634
0.000174158
0.000477628
-0.000387556
0.000155368
-0.000500033
0.000455959
-0.00039966
-4.16261e-05
-0.000423524
0.000282096
0.000327685
-0.000383818
8.56613e-05
-0.000368318
5.17202e-05
-0.000305148
2.55492e-05
-0.000245742
-0.000168451
-5.39803e-05
-3.0739e-05
-0.000166465
2.07888e-05
-0.000146679
-0.000156375
-6.80013e-05
-0.000174348
-0.000185071
-0.000198212
-0.000110032
-0.000127227
-1.06324e-05
-0.000139763
-9.55528e-05
-2.98426e-05
-0.000103641
-8.18216e-05
1.37972e-06
-7.14148e-05
6.28887e-05
-9.32338e-05
-9.14776e-05
3.17665e-05
-7.95134e-05
-3.07533e-05
-4.36912e-05
-2.80282e-05
3.64304e-06
-5.48892e-05
-3.10409e-05
-5.89361e-05
1.74998e-05
-6.00971e-05
-4.61762e-05
0.000738077
0.000677558
0.000831408
0.000905035
0.000341379
-3.91002e-05
0.000965588
-0.000904694
0.000598136
-0.000729954
0.000812874
-0.000423978
-0.000335246
0.000817112
-0.000232188
-4.40736e-05
2.38638e-05
-0.00046515
0.000363991
-0.000535016
-0.000346199
-5.61331e-05
-0.000282656
-0.000253428
-0.000220193
-0.000222432
-0.000122174
-0.000197204
-3.22127e-05
-0.00012589
-0.000224377
5.96311e-05
-0.000233979
-0.000152858
-5.33423e-05
-0.000158103
-5.84489e-05
-5.26305e-05
-8.01893e-05
-2.22763e-05
-7.45966e-05
-0.000150396
-0.000125395
-1.04068e-05
-8.13645e-05
-7.00351e-05
-3.03451e-05
-5.97111e-05
-3.58222e-05
-7.44445e-05
2.6861e-05
-5.12462e-05
2.78952e-05
-4.14363e-05
-1.39209e-05
-4.37194e-05
-5.57529e-05
0.000470299
0.000403712
0.000267777
0.000490029
0.000273846
0.00124641
0.000865594
6.08944e-05
-0.000131818
-0.000746795
0.000388896
0.000481866
0.00011401
-0.000463174
0.000449258
-0.000408065
-0.000425395
-0.000490315
-1.97547e-06
-0.000171025
-0.000402332
6.37615e-05
-0.000445954
-0.000346418
2.73702e-05
-0.000280798
0.000100135
-0.000100258
-0.000320328
-0.000319377
-0.000164745
-6.9912e-05
-0.000180637
-0.0002062
-0.000216552
-0.00013282
-9.68729e-05
-3.51991e-05
-9.70497e-05
-5.33459e-05
-7.40089e-05
-9.01963e-05
-0.00010026
-9.17713e-05
-1.13047e-05
2.49437e-05
-0.000103076
5.76683e-05
-9.49788e-05
-8.80134e-05
2.80374e-05
-6.89474e-05
9.23624e-06
-8.05898e-05
-6.38596e-05
-4.75835e-05
-2.33509e-05
4.5297e-05
-5.87025e-05
1.72661e-05
-5.63324e-05
-5.92179e-05
1.20334e-05
-5.34019e-05
-4.04403e-05
0.00089072
0.000671489
-0.000164175
0.000763875
0.0005997
0.000666473
0.00057994
5.15061e-05
0.000814087
-0.000780869
-0.000742377
0.00100139
0.000614977
-0.000940496
0.000667172
-0.000357899
-0.000185306
-0.000349164
4.11938e-05
-0.000516384
6.49208e-05
-0.000492291
0.000345359
-0.000470306
4.36226e-05
-0.000382193
-0.000319048
-0.000180664
-0.000420586
-0.000249465
-0.000234658
-8.7639e-05
-0.000162201
-7.96728e-05
-9.2998e-05
-0.000126527
-0.000142543
1.10697e-05
-8.55681e-05
-3.25601e-05
-0.000132249
-0.000127355
5.30441e-05
-0.000190456
-7.81323e-05
-3.73105e-05
-8.85308e-05
-7.42359e-06
-4.091e-05
-7.13536e-05
4.04302e-05
3.01059e-05
-7.29488e-05
9.08921e-06
-8.13401e-05
3.29814e-05
-7.76894e-05
-1.34055e-05
-3.90662e-05
5.40371e-05
-4.71844e-05
-1.29615e-05
-3.82613e-05
-5.5637e-05
0.000528259
0.000835664
-2.68662e-05
0.00126617
0.00136081
3.32184e-05
0.000793883
0.000259014
-0.000325519
-0.000794174
0.000309273
-0.000484901
0.000784454
0.000649536
-0.00096976
0.000121142
-0.000324099
0.000523629
-0.00047519
-0.000458708
-0.000168192
-0.000304176
-0.000426684
-0.000443525
-3.63469e-05
-9.69874e-06
-0.000345846
6.65193e-05
-0.000309349
-0.000247183
-0.000116594
-0.000303991
-0.00011386
-8.80085e-05
-0.000135606
-7.24566e-05
-0.00024984
-0.000172671
-0.000137597
-2.91377e-05
-0.000131473
-7.43107e-05
-0.000118128
1.03986e-05
-0.000185293
-8.62378e-05
-0.000104218
-1.48134e-05
-0.000125841
9.77513e-05
-0.000105175
-7.65803e-05
-3.09234e-05
-4.28429e-05
-7.22509e-05
4.36519e-05
-4.4708e-05
-6.74426e-05
-8.74874e-05
1.49709e-05
3.91633e-05
-6.20397e-05
1.48552e-05
-7.78682e-05
-5.21248e-05
1.73757e-05
-5.35434e-05
-4.04548e-05
0.000555125
0.000808797
0.000631782
0.000615342
0.000650832
0.000406341
0.000729027
0.000827101
-0.000962044
0.00122106
-0.000724599
0.000468655
-0.000844561
0.000299553
-0.000320224
-0.000337892
-0.000202957
4.84387e-05
-0.000544433
0.000144011
0.000169701
-0.000602719
-0.00063378
0.000240257
1.68408e-05
-0.000479872
-0.000355545
-0.00024283
0.000137753
0.000163887
-0.000384936
-0.000280482
-0.000215983
-7.41155e-05
-0.000201868
-0.000208062
-0.000240469
-0.000143533
-9.37109e-06
-0.000166735
-0.000205784
-0.00010773
2.71755e-05
-0.00017048
-0.000113413
-0.000119032
-2.65211e-05
-2.80901e-05
-8.05542e-05
-2.85946e-05
-0.000107504
4.27795e-05
-8.64948e-05
-2.8599e-05
-8.11573e-05
1.04256e-05
6.71541e-05
-7.25165e-05
-2.28764e-05
-6.3013e-05
4.14267e-05
-3.47491e-05
-1.30886e-05
-3.84235e-05
0.000673162
0.000402457
0.00124712
8.68459e-05
0.00105717
0.0015517
-0.000634441
0.00136347
-0.000117483
0.000496458
0.000987495
-0.000375906
-0.000687942
-0.000931212
0.000313556
0.000362505
-0.000540849
-0.000495995
0.000433933
-0.000289922
-0.000433019
-0.000393523
-0.000345664
-0.000327252
-0.00015262
-0.000105077
-0.000151288
-0.000204257
-8.10282e-05
-0.000221049
-0.000141867
-0.000107691
-0.00017279
4.00707e-05
-0.000275984
6.65652e-05
-0.000248133
-0.000307034
-0.000152904
-6.85995e-05
-8.61214e-05
-9.81353e-05
-2.90257e-05
-0.000119662
-0.000141454
-8.68923e-05
-0.000145553
9.70944e-06
6.96367e-05
-0.000108644
3.90076e-05
-9.82313e-05
-2.63464e-05
-0.000106482
-4.37153e-05
7.54619e-05
-0.000109756
-5.67285e-05
-5.36244e-06
4.50587e-05
-6.4303e-05
-2.15863e-05
5.59742e-05
-7.98078e-05
-6.90627e-05
1.94126e-05
4.2457e-05
-5.78361e-05
-4.04479e-05
-5.81874e-05
0.00107562
0.00116028
0.00114402
0.00091726
0.00129514
-3.21614e-05
6.83284e-05
0.00115617
0.000724892
-0.000842374
0.000611589
0.00128122
-0.000784763
0.00136008
0.00024327
-0.000617656
-0.000178345
-0.000317819
-0.000663742
-6.20617e-05
0.000177834
-0.000467756
-0.0001152
0.000270219
-0.000806178
0.000216856
-0.000379384
3.37198e-05
-0.000496163
-0.000246224
7.76941e-05
-0.000369476
-0.000256364
-0.000285285
4.02584e-05
2.52509e-05
-0.000266183
4.51348e-05
-0.000296622
-0.000249559
-0.000198041
-4.6329e-05
-0.000235913
-0.000181568
-0.000196108
-0.000110926
-0.000144714
4.65783e-05
-0.000221504
-0.000184257
-0.000148688
2.88589e-06
-0.000151163
-0.0001259
8.2503e-06
-0.000135843
-0.000132828
7.92129e-05
-0.000119177
-7.72555e-05
-3.42945e-05
-8.45754e-05
3.71909e-05
4.44398e-05
-9.39194e-05
-1.92444e-05
7.54535e-05
-6.60261e-05
-2.38336e-05
-4.96501e-05
-1.53791e-05
-3.44918e-05
-4.98709e-05
1.77395e-05
-5.62706e-05
-4.0638e-05
0.000349799
0.000838457
0.000237162
0.00119244
0.000794219
-4.22636e-05
0.00115498
-0.00023891
0.00126298
0.0012245
-0.000635192
-0.000230786
-0.00103994
0.000126245
0.000575321
-0.000723811
0.000967081
-0.00127073
0.000188522
-0.000925321
0.000427906
-0.000725804
-0.000250071
-0.000582956
-0.000535959
-0.000162528
-0.000462444
0.000337641
-0.000323918
-0.000291782
-0.000245027
-7.13719e-05
-0.000240933
-0.000251488
-4.57515e-05
-0.00020323
-0.00024437
-3.68541e-05
-0.000190161
-0.000242686
-0.00025564
-0.000174925
-0.000187143
1.16611e-05
-0.000145802
-2.95177e-05
-0.000121646
-0.00011765
-2.56634e-05
2.79298e-05
-0.00011018
-5.55725e-05
-3.99643e-05
6.50742e-05
-0.00011155
-4.73845e-05
-4.94796e-05
4.27657e-05
-9.46979e-05
9.42743e-06
-6.82583e-05
-6.65993e-05
-1.51584e-05
-6.7858e-05
-3.21314e-05
-1.56326e-05
-3.88091e-05
0.00118826
0.000977954
0.0012347
0.000751955
0.000916066
0.00124831
-0.000142672
1.46694e-05
0.00128086
0.00151495
-5.6363e-05
0.000404748
-0.000598881
0.00124211
0.00143589
-0.00111586
0.00127184
-0.00086057
0.00020151
-0.000303645
0.00119005
-0.000736798
-0.000297898
-0.000434689
0.000182936
-8.16944e-05
-0.000433008
-0.000501262
0.000282375
-0.000843656
-0.000818334
0.000215622
-0.000500169
-0.000124802
-0.000406006
-0.000252546
-0.000507403
9.28453e-05
-0.000316399
3.26438e-05
-0.000284131
0.000132671
7.68197e-05
-0.000373604
-0.000248981
4.4865e-05
-0.00032119
-0.000227016
-0.000190665
-0.000113593
-0.000129094
-0.000204997
-6.49746e-05
-0.000186587
0.00011608
-0.000175481
-0.00017532
-0.000149575
-2.94905e-05
7.96508e-05
-0.000143313
-6.36622e-05
-8.225e-05
-0.000135223
6.14471e-05
-0.000105038
-4.64758e-05
1.87787e-05
-0.000108832
-5.19322e-05
-5.88309e-05
-5.82202e-05
1.25865e-06
5.01178e-05
-8.30164e-05
4.80165e-05
-8.22492e-05
-6.36491e-05
2.12626e-05
4.45798e-05
-6.00716e-05
-4.27506e-05
-5.74373e-05
-0.000706833
0.000892875
0.000295382
0.000849924
0.00137738
0.00145879
-5.81654e-05
0.00110564
0.00129553
-0.000707454
0.00145858
-0.000867096
0.000643226
0.000320028
0.000411275
-0.000988543
0.000886408
-0.00130594
0.000106857
-0.000804578
0.000136791
-0.000562301
-0.000251753
-0.000514702
-0.000365141
-9.52561e-05
-0.000561281
-0.000256033
-0.000284547
0.000309846
-0.000530808
-0.000345391
-0.000414558
-8.92596e-06
-0.000283755
-0.00015146
-0.000292681
-0.000296784
-2.2019e-05
-0.000293846
-0.000124811
-0.000276325
-0.000304258
-0.000245173
-0.000269971
-7.0507e-05
-0.000133364
-0.000145829
-4.21179e-05
-0.000179066
-0.000145912
1.28891e-05
5.39523e-05
-0.000148112
-4.35914e-05
-0.000100428
-9.00529e-05
4.13975e-05
6.28798e-06
9.09137e-05
-0.000100228
-5.69615e-05
-3.28986e-05
-3.42327e-05
-4.23865e-05
-1.54918e-05
-4.369e-05
1.46868e-05
-5.56857e-05
-5.1748e-05
0.00114531
0.000186042
0.00143554
0.00140062
-0.000235114
0.00181309
0.000588076
0.00175381
0.00138293
-0.00029523
0.000438844
-0.000739707
0.00141654
-0.000890036
0.00121006
-0.00165495
-0.00100527
0.00144482
-0.000183965
-0.000419532
-0.00069772
-0.00042551
0.000210673
-0.000494548
-0.000462426
-0.000149561
-0.000460397
-0.000719348
9.68301e-05
0.000456765
-0.000658111
-0.000712798
6.90378e-05
-0.000594393
-0.000419716
-0.000220962
-0.000336465
-5.39167e-05
-0.000382857
6.93846e-06
-0.000360641
-0.000444141
-0.000171973
-0.000315865
-0.000401136
-0.000177331
-0.000126927
-0.000170883
-4.77718e-05
-0.000197401
2.60885e-05
-9.90885e-05
-0.000166686
-0.000203871
0.000141927
-0.000187947
-5.33875e-05
-0.000135784
-0.000133023
-4.32819e-05
2.41139e-09
-9.416e-05
-0.000144019
-4.86554e-05
3.88966e-05
-8.46258e-05
-9.31463e-06
3.82756e-05
-9.58581e-05
-7.11742e-05
5.81821e-05
2.86296e-05
-9.24148e-05
2.81982e-05
-7.10161e-05
-2.90032e-05
-3.93773e-06
-5.00248e-05
-3.66243e-09
0.00133135
0.00167065
5.81765e-05
0.00107766
0.000113716
0.00134245
0.00157798
0.00234189
0.0010877
-0.00100598
0.00091524
0.000526506
-0.000444883
0.00162566
0.000439557
0.000910176
-0.00100658
-0.00109414
0.000587053
-0.00129164
2.16276e-05
-0.000759621
-0.000283875
-0.000611987
-4.06811e-05
-0.00045392
-0.000622518