/*--------------------------------*- C++ -*----------------------------------*\
| =========                 |                                                 |
| \\      /  F ield         | OpenFOAM: The Open Source CFD Toolbox           |
|  \\    /   O peration     | Version:  v1912                                 |
|   \\  /    A nd           | Website:  www.openfoam.com                      |
|    \\/     M anipulation  |                                                 |
\*---------------------------------------------------------------------------*/
FoamFile
{
    version     2.0;
    format      ascii;
    class       volVectorField;
    location    "10000";
    object      U;
}
// * * * * * * * * * * * * * * * * * * * * * * * * * * * * * * * * * * * * * //

dimensions      [0 1 -1 0 0 0 0];


internalField   nonuniform List<vector> 
71770
(
(0.132854 0.00596935 -2.92818e-23)
(0.136636 0.0046356 4.3869e-23)
(0.143674 0.00285487 -1.52481e-17)
(0.157874 0.000831614 -3.75087e-18)
(0.167003 0.000439781 1.80123e-18)
(0.166791 0.000361065 0)
(0.167065 0.000279302 0)
(0.166776 0.000187061 8.46615e-19)
(0.163093 8.57501e-05 -3.18663e-24)
(0.158371 -0.00128344 -6.68185e-18)
(0.176305 -0.00639205 2.68337e-17)
(0.213712 -0.0113441 2.4958e-17)
(0.131464 0.00704715 -3.0633e-17)
(0.134549 0.00836598 -6.08075e-17)
(0.132114 0.00783264 3.05171e-17)
(14.0493 0.828026 2.27016e-16)
(12.5289 0.739216 3.89794e-21)
(0.786102 0.0488529 -2.42826e-22)
(1.21284 0.0753484 -2.91999e-22)
(2.34031 0.145278 -2.19863e-16)
(1.72518 0.107138 1.83323e-16)
(0.430649 0.0267703 0)
(0.422926 0.025071 -5.32651e-17)
(3.02721 0.179281 1.32241e-16)
(7.62777 0.451025 -4.95534e-16)
(6.18577 0.36594 4.39017e-16)
(9.23088 0.545499 5.28208e-16)
(4.94485 0.292652 -1.87824e-16)
(3.89988 0.230891 -1.58103e-16)
(10.9004 0.643704 -5.26196e-16)
(0.772129 0.0457657 -6.39152e-17)
(1.1915 0.0706117 1.5338e-16)
(1.69522 0.100445 0)
(2.30032 0.136268 -1.68065e-21)
(24.2904 -0.169347 0)
(17.7855 0.950074 8.25593e-20)
(16.6203 0.888748 0)
(16.7403 0.586985 4.43988e-20)
(17.8861 0.629774 0)
(18.9491 0.670132 7.36604e-20)
(19.9422 0.708566 1.38166e-16)
(18.1568 0.40942 0)
(19.2001 0.44034 3.53404e-20)
(20.1759 0.471173 6.67461e-17)
(20.7116 0.209144 0)
(17.0314 0.378021 8.82656e-17)
(20.8749 0.745541 -2.53486e-16)
(21.0951 0.502302 -6.1379e-17)
(21.5986 0.23452 -1.46009e-17)
(13.9651 0.747934 -2.26929e-16)
(12.4545 0.66735 2.48193e-16)
(15.3514 0.82162 0)
(13.982 0.633235 -2.25426e-16)
(15.3563 0.696018 2.03833e-16)
(15.4955 0.541191 4.9128e-20)
(16.6152 0.753594 -4.50284e-20)
(17.7743 0.80665 1.67705e-16)
(18.848 0.855864 -1.53451e-16)
(19.8479 0.901841 0)
(14.1338 0.491793 -2.22977e-16)
(15.8053 0.345716 -1.95813e-16)
(14.4582 0.312056 2.17658e-16)
(19.7698 0.186057 -1.74808e-17)
(18.7602 0.164958 1.91843e-17)
(17.6653 0.145583 5.08697e-21)
(21.2319 0.0555774 4.08077e-18)
(6.1522 0.329841 -6.712e-21)
(7.58578 0.406682 2.48661e-16)
(9.17906 0.492059 -2.64851e-16)
(9.22175 0.416563 -3.23012e-20)
(7.62905 0.344345 0)
(10.8375 0.580873 -6.43264e-20)
(10.8753 0.49168 3.20657e-20)
(11.0388 0.381543 1.58887e-20)
(23.4731 0.128604 0)
(23.8292 0.0926586 0)
(24.11 0.0535 -3.02765e-18)
(24.2785 0.00327155 2.98338e-21)
(12.4831 0.564874 -3.01335e-20)
(12.6438 0.438419 2.4488e-16)
(12.976 0.276718 -1.1989e-16)
(23.0227 0.177241 -2.52969e-20)
(20.4395 0.113986 8.29751e-21)
(19.4487 0.0977383 0)
(21.3551 0.132514 0)
(19.9005 0.0674877 -4.40151e-21)
(20.9064 0.0792104 -3.97082e-21)
(22.2121 0.153521 -6.68516e-21)
(22.6752 0.109535 6.69499e-21)
(21.8248 0.0931462 7.19578e-21)
(22.1702 0.0656129 -3.70656e-21)
(23.0302 0.0778883 0)
(22.4196 0.0354173 -5.4032e-21)
(23.2995 0.0433411 3.33376e-18)
(23.4433 -0.000196742 9.75155e-21)
(5.06613 0.173448 0)
(9.69545 0.202649 -1.29857e-16)
(1.68659 0.0904199 9.23578e-17)
(3.03731 0.136757 1.0142e-21)
(3.91044 0.176164 0)
(4.00329 0.136824 0)
(5.27995 0.108023 -9.3678e-17)
(6.57489 0.135355 -1.09217e-16)
(8.06332 0.167171 1.22707e-16)
(3.1126 0.10622 0)
(11.3687 0.239863 1.28228e-16)
(1.1855 0.0635539 -1.53964e-16)
(0.776021 0.0348861 -2.45204e-22)
(0.425176 0.0191086 -5.11092e-23)
(1.19712 0.0538337 0)
(1.70256 0.0765907 0)
(2.30923 0.103926 8.4632e-22)
(0.79741 0.0270922 1.83761e-22)
(1.22948 0.0418089 -7.71191e-17)
(1.74753 0.0594855 9.25212e-17)
(2.36851 0.0807184 -4.21974e-22)
(17.1541 0.0712323 -4.48859e-22)
(16.1319 0.0424877 -1.54521e-21)
(15.8003 0.0604486 1.27332e-17)
(14.56 0.0363313 0)
(14.7006 0.0269526 0)
(14.2831 0.0509097 0)
(20.196 0.0474776 -9.02481e-18)
(16.3078 0.0310506 1.48074e-21)
(17.536 0.0494855 0)
(18.785 0.0576929 -2.50194e-21)
(17.7521 0.0356067 0)
(19.0425 0.0409527 5.00384e-18)
(8.62869 0.0536005 3.00331e-17)
(10.3162 0.0662315 -3.16933e-17)
(12.0254 0.0802331 -1.86845e-21)
(10.8409 0.0346815 3.03794e-17)
(12.6106 0.0423575 -1.49876e-17)
(12.8331 0.0307333 0)
(11.0121 0.0255761 1.47814e-17)
(5.70347 0.0336015 2.30148e-17)
(7.07172 0.0427026 -2.67951e-17)
(3.25519 0.0659058 6.60563e-17)
(4.18011 0.0850493 7.89427e-17)
(3.5397 0.0200207 1.21486e-22)
(4.53175 0.0261252 -7.42265e-22)
(9.08471 0.0279358 -2.87884e-17)
(9.20946 0.0209141 -1.40199e-17)
(12.9444 0.0230923 -7.10716e-18)
(13.6489 0.0951918 7.17148e-21)
(11.0989 0.0194067 7.20325e-18)
(9.27452 0.01598 -4.22154e-22)
(0.437087 0.014839 5.11091e-23)
(0.459295 0.0091465 1.6038e-23)
(1.2901 0.0258254 -3.83188e-17)
(1.83199 0.0367927 -4.59705e-17)
(2.48026 0.0499999 5.1399e-22)
(0.83737 0.0167155 6.38718e-17)
(0.504043 0.00267615 5.10094e-24)
(2.00139 0.0109742 -1.13075e-17)
(0.9706 0.00258768 0)
(2.11582 0.0057445 5.42983e-18)
(1.4929 0.00401313 1.76218e-23)
(0.533119 0.00141179 -2.96273e-24)
(1.41189 0.0076463 -1.76222e-23)
(0.917784 0.00491737 7.85571e-18)
(2.70388 0.015041 1.35599e-17)
(3.73993 0.0104287 -1.5601e-17)
(2.85776 0.00785297 -4.68592e-24)
(4.82009 0.0105703 -9.0972e-18)
(4.78591 0.013585 1.55271e-22)
(6.0194 0.0174597 2.20946e-17)
(7.45613 0.022203 -4.26833e-22)
(6.07494 0.0134241 3.1036e-24)
(7.54175 0.0168534 1.25344e-17)
(4.84173 0.0081565 0)
(6.10703 0.0103374 -8.29166e-23)
(7.5883 0.0129378 -1.85507e-22)
(1.49482 0.00324001 8.83814e-18)
(2.1209 0.00460286 -2.09899e-23)
(3.75977 0.00820342 -5.88084e-23)
(2.86843 0.0062381 -6.3573e-18)
(0.532871 0.00115373 3.06944e-18)
(0.970931 0.00210297 -7.36614e-18)
(0.973028 0.00162712 -6.95491e-24)
(0.533884 0.000892604 2.89808e-24)
(1.4985 0.00250682 0)
(3.77415 0.00633832 0)
(3.77573 0.00403533 2.77851e-23)
(4.84673 0.00512644 -3.31812e-23)
(2.12691 0.00356062 -9.82278e-24)
(2.87783 0.00482355 0)
(2.12577 0.0023166 -2.55211e-18)
(2.87755 0.00310655 0)
(1.49716 0.00164556 2.12741e-18)
(0.971859 0.00107639 -1.77309e-18)
(20.3845 0.0249783 4.47914e-18)
(19.1961 0.0217013 0)
(20.4204 -0.00200648 0)
(16.401 0.0171242 -1.47471e-21)
(16.3409 0.00110525 2.9397e-18)
(14.7724 0.0152244 -3.95472e-22)
(17.873 0.0191968 -6.60432e-22)
(17.8389 6.96606e-05 3.27672e-21)
(19.1947 -0.00105392 4.7692e-21)
(21.4535 0.0294178 -4.05763e-18)
(21.5285 -0.00244598 7.90457e-21)
(14.6935 0.00188923 1.99957e-21)
(12.9091 0.00235417 -3.40188e-18)
(7.36936 -0.0570872 4.73466e-17)
(7.90783 -0.274868 0)
(10.8702 -0.0828498 -2.41302e-21)
(9.04725 -0.0695336 5.25591e-17)
(9.62992 -0.331916 -3.16581e-21)
(11.1408 0.0114434 -4.33549e-22)
(6.11762 0.00640623 -7.98182e-23)
(7.60716 0.00789683 9.40501e-23)
(9.30418 0.00959485 0)
(12.9999 0.0133425 0)
(0.533103 0.000594354 1.47768e-18)
(7.51251 0.00228441 -2.96577e-18)
(9.20606 0.00246574 0)
(11.0439 0.00251978 0)
(6.03051 0.00204083 2.55737e-18)
(4.76996 0.00176894 3.31788e-23)
(5.90459 -0.046075 -4.0881e-17)
(3.71072 0.00148871 1.80883e-18)
(2.82464 0.00121173 -3.02017e-18)
(2.0846 0.00094579 1.25924e-18)
(0.521649 0.000266543 7.29111e-19)
(0.951557 0.000470591 -8.74878e-19)
(1.46692 0.000697463 0)
(3.62179 -0.0286294 0)
(4.66245 -0.0366281 1.05637e-21)
(3.95795 -0.140314 1.1612e-16)
(6.38074 -0.223428 -1.63597e-16)
(5.06894 -0.178659 -4.62509e-21)
(2.03003 -0.0162177 -4.02883e-17)
(2.75355 -0.0218884 2.41567e-17)
(1.42729 -0.0114526 -1.37477e-23)
(0.506868 -0.00409599 1.16627e-17)
(0.925172 -0.00745203 -8.84567e-24)
(20.2702 -0.149592 3.53591e-17)
(19.015 -0.140849 -4.24666e-20)
(22.4618 -0.163251 -2.9528e-17)
(21.4163 -0.157165 -2.44278e-20)
(20.5766 -0.640532 1.32648e-16)
(20.7964 -1.00697 6.22042e-21)
(16.1364 -0.12045 0)
(18.0428 -0.583129 -3.74409e-20)
(17.6408 -0.131119 -2.57571e-21)
(19.3622 -0.614748 -3.29762e-20)
(19.5466 -0.960898 3.68278e-20)
(16.6013 -0.54522 0)
(18.1549 -0.904279 0)
(14.4933 -0.108798 -1.53428e-21)
(22.7335 -0.674739 -1.11679e-16)
(21.6979 -0.660603 -1.87821e-20)
(11.4667 -0.391377 -1.26387e-20)
(9.14204 -0.474493 0)
(12.9563 -0.664266 1.25715e-20)
(11.0104 -0.5683 0)
(12.7207 -0.0961704 -5.3658e-17)
(13.2961 -0.448724 -6.32194e-21)
(14.8496 -0.755221 2.20549e-20)
(15.0203 -0.500454 2.26524e-20)
(16.5932 -0.83586 -2.25271e-20)
(21.9318 -1.04372 0)
(22.974 -1.07189 -1.10599e-19)
(23.9369 -1.09173 -9.99549e-17)
(22.7834 -1.09402 0)
(23.8103 -1.11056 0)
(21.6572 -1.06712 4.33422e-21)
(19.0017 -0.977254 -2.38027e-20)
(20.4065 -1.02867 -1.18528e-16)
(24.8289 -1.10291 1.82526e-16)
(7.44814 -0.388356 1.51885e-16)
(11.6276 -0.633632 -9.84195e-21)
(15.6277 -0.830566 -1.58334e-16)
(13.6684 -0.736194 1.65893e-16)
(9.64535 -0.531059 1.51173e-16)
(7.83915 -0.435597 -1.32591e-16)
(17.4138 -0.911439 1.45467e-16)
(3.02239 -0.107696 -3.69216e-22)
(2.23655 -0.0800506 2.9777e-22)
(0.562971 -0.0203543 -4.68363e-17)
(1.02523 -0.0369605 -5.62e-17)
(1.57745 -0.0566783 6.74296e-17)
(1.23594 -0.0654467 5.22694e-17)
(0.680542 -0.0360844 7.81327e-23)
(5.96515 -0.312223 -1.28724e-16)
(4.6893 -0.24623 1.54908e-21)
(3.601 -0.189593 0)
(4.90651 -0.276933 -1.54641e-21)
(6.25965 -0.35071 1.69716e-21)
(2.67715 -0.14127 -2.97741e-22)
(1.89552 -0.100214 -6.27115e-17)
(3.75802 -0.213499 5.96334e-22)
(2.78766 -0.159277 6.62277e-17)
(4.91836 0.263696 1.88556e-16)
(6.19286 0.279325 0)
(3.87928 0.207986 -1.5872e-16)
(4.95466 0.223335 2.8804e-21)
(6.32301 0.216898 0)
(7.77595 0.267322 0)
(9.38058 0.323299 1.6091e-20)
(3.01143 0.161454 -1.01425e-21)
(2.28848 0.122691 -8.46331e-22)
(18.3618 0.0835672 -1.02396e-17)
(15.1303 0.110961 0)
(16.4632 0.127673 0)
(22.5316 -0.00197745 1.80942e-21)
(23.4161 -0.167451 -1.31648e-20)
(23.6891 -0.682464 0)
(0.42083 0.0225592 0)
(0.768273 0.0411855 6.41585e-17)
(0.22116 -0.0128399 0)
(22.7151 -1.56788 0)
(23.8873 -1.60991 0)
(21.3379 -1.50288 -2.11447e-20)
(19.7073 -1.41108 -1.8419e-20)
(5.76446 -0.431915 -5.95117e-22)
(4.33986 -0.325403 0)
(3.10459 -0.232753 -1.07015e-16)
(2.04148 -0.152932 1.78465e-16)
(1.13208 -0.0847055 -7.43867e-17)
(9.22819 -0.688298 -1.68741e-21)
(7.39201 -0.55292 0)
(13.4438 -0.992862 2.88409e-16)
(11.2612 -0.836448 0)
(15.6731 -1.14861 -3.10119e-16)
(17.8029 -1.29149 0)
(0.357973 -0.0267167 0)
(1.97004 -0.113119 -5.52231e-17)
(1.28249 -0.0739544 1.72941e-22)
(0.705217 -0.040812 -7.81304e-23)
(14.7915 -1.56934 6.74641e-17)
(17.5111 -1.75608 3.96209e-16)
(14.0307 -1.38233 0)
(19.0112 -1.79552 -6.75784e-16)
(18.477 -2.03318 -1.17638e-16)
(15.4365 0.105828 -6.00428e-16)
(15.0702 -1.24107 -4.89995e-16)
(18.0854 -1.3567 2.30396e-16)
(21.7126 -1.93741 0)
(17.7542 -2.26234 1.42697e-16)
(19.699 -1.96672 1.30421e-16)
(22.8291 1.26027 2.30477e-16)
(15.8402 -0.211359 1.21706e-15)
(20.1239 -1.46069 0)
(22.5373 -1.79611 0)
(22.4441 -2.03524 -1.41043e-16)
(19.1384 -2.24057 -2.53426e-16)
(21.0923 -2.13657 -8.91427e-17)
(18.7245 -2.29607 9.20522e-17)
(24.2196 1.29088 6.17592e-16)
(20.028 0.98444 -1.5918e-16)
(15.9335 0.0625112 -1.86601e-17)
(20.2789 -1.36007 -3.21008e-16)
(24.9283 -1.83489 1.21207e-16)
(24.4624 -1.94018 0)
(19.5484 -2.23615 1.22686e-16)
(22.4857 -2.30021 1.9518e-16)
(19.4762 -2.40198 -7.19398e-17)
(19.0767 -2.41361 3.74949e-17)
(24.5905 1.03971 -5.24985e-16)
(21.1736 1.00337 -3.90182e-16)
(18.2039 -0.760083 -3.53933e-16)
(23.2708 -1.49345 6.30999e-18)
(25.2033 -1.71531 6.38715e-16)
(26.5697 -1.73547 -3.6637e-16)
(24.8261 -2.37193 0)
(26.4885 -2.13701 0)
(20.6649 -2.26294 1.43252e-16)
(21.9287 -2.3571 -4.8675e-17)
(24.1627 -2.41149 0)
(20.5283 -2.45515 7.44867e-17)
(19.6787 -2.47593 -6.7875e-17)
(19.1423 -2.47584 1.59888e-16)
(20.1272 0.147375 7.4428e-17)
(19.5859 -0.77446 3.78607e-16)
(22.8588 -1.23717 -1.61048e-17)
(27.6412 -1.71617 2.23083e-16)
(26.7493 -2.15442 0)
(28.5908 -1.98786 2.97135e-16)
(26.5678 -2.50771 0)
(27.5662 -2.47193 0)
(22.459 -2.4248 5.57607e-17)
(25.1198 -2.59141 1.58579e-16)
(21.3157 -2.51064 -6.07092e-17)
(20.6283 -2.52697 0)
(19.7395 -2.51895 -8.23545e-17)
(19.2592 -2.58768 8.49621e-17)
(28.9425 1.82734 0)
(18.8512 -1.02845 0)
(24.2387 -1.231 1.25397e-16)
(27.0787 -1.60239 0)
(29.5754 -1.82233 -6.85181e-16)
(28.9615 -2.34161 0)
(30.0554 -2.00841 -3.12119e-16)
(27.3603 -2.60511 0)
(28.9061 -2.49313 0)
(23.2788 -2.4221 1.357e-17)
(24.5361 -2.63124 -1.65884e-16)
(26.6361 -2.66053 0)
(21.396 -2.56995 -5.84747e-17)
(21.2967 -2.63452 -5.86126e-17)
(20.9127 -2.60673 2.93835e-17)
(19.9424 -2.67591 -3.86523e-17)
(19.6331 -2.67189 -3.65455e-17)
(27.4968 1.46337 4.11813e-16)
(19.9603 -1.28367 1.36564e-16)
(23.0316 -1.14908 -2.83051e-16)
(28.6343 -1.64618 0)
(31.949 -1.74676 1.01082e-17)
(30.348 -2.34572 -1.44213e-16)
(32.6064 -2.18421 1.12342e-16)
(28.6733 -2.65682 1.48899e-16)
(30.3297 -2.52865 -4.7606e-17)
(29.4326 -2.65373 -1.44189e-16)
(23.1626 -2.61163 -7.31717e-17)
(25.0961 -2.82127 0)
(27.1511 -2.69985 4.42816e-17)
(22.4252 -2.65355 1.30304e-16)
(22.3783 -2.76663 -1.60344e-18)
(21.0525 -2.72013 -1.46722e-16)
(20.2229 -2.73373 0)
(19.8237 -2.76225 0)
(22.6021 0.509315 4.95745e-16)
(34.5895 1.88597 0)
(19.7431 -0.178074 5.2146e-16)
(26.0275 -1.22687 -3.84176e-16)
(31.4956 -1.69069 0)
(28.2694 -1.05606 3.87756e-16)
(34.0781 -1.885 3.0862e-16)
(32.5678 -2.29591 4.86954e-16)
(34.2728 -2.17863 -1.42649e-16)
(29.2425 -2.76894 -1.39161e-16)
(31.5648 -2.55173 3.18278e-17)
(30.7021 -2.72173 -6.7113e-17)
(23.9758 -2.72699 0)
(26.079 -2.74694 0)
(28.4087 -2.81008 1.03731e-16)
(23.4602 -2.74677 3.99619e-17)
(21.703 -2.75287 1.09482e-16)
(21.2387 -2.78427 0)
(20.5619 -2.80277 0)
(20.1343 -2.85004 3.68914e-17)
(22.3677 0.206576 -1.49536e-15)
(34.4818 2.07407 -3.41786e-16)
(24.3504 -0.670872 2.64305e-16)
(33.2667 -1.66556 0)
(31.3177 -1.26138 0)
(35.9447 -1.85491 0)
(34.0087 -2.3242 -3.8502e-16)
(36.0235 -2.17608 1.67942e-16)
(30.3603 -2.89556 0)
(32.9454 -2.56146 -2.72802e-16)
(31.2124 -2.80797 6.50819e-17)
(26.4735 -2.87686 -1.74916e-17)
(28.6609 -2.92775 3.50315e-17)
(23.5564 -2.8207 0)
(22.6656 -2.84235 0)
(21.5959 -2.81069 0)
(20.6013 -2.88976 5.46281e-17)
(20.9572 -2.92247 1.18421e-17)
(20.7479 -3.0146 -1.32091e-16)
(23.1693 -0.446303 9.61687e-16)
(28.7656 1.40102 3.59729e-16)
(26.2447 -0.825454 -1.06526e-15)
(35.1856 -1.62319 3.10043e-16)
(32.4001 -1.07851 0)
(37.5026 -2.03089 -1.36995e-16)
(36.2814 -1.77263 -3.96636e-16)
(33.7741 -2.58466 1.77781e-16)
(35.745 -2.36406 0)
(36.388 -2.31923 0)
(37.3133 -2.16495 0)
(30.7759 -2.98436 9.88163e-19)
(33.4452 -2.77326 5.29994e-17)
(32.5233 -2.80855 0)
(25.9485 -2.89112 7.85458e-17)
(27.8543 -2.9388 -2.05277e-17)
(29.8355 -2.94952 3.60731e-17)
(24.7386 -2.77835 -9.22297e-17)
(23.5686 -2.94348 5.39784e-17)
(22.555 -2.91938 0)
(21.436 -2.9318 -6.35605e-17)
(21.3085 -2.99261 9.84785e-17)
(20.6609 -3.02505 0)
(23.6205 0.425178 -4.86601e-16)
(25.1533 -0.376411 5.63404e-16)
(29.4223 1.06926 0)
(30.7775 -0.975422 0)
(36.6989 -1.37185 2.4265e-16)
(35.7095 -1.19374 -2.33342e-16)
(38.7841 -2.00764 1.42812e-16)
(38.1552 -1.75646 -1.34227e-16)
(35.2856 -2.71604 -2.37765e-17)
(36.3349 -2.64394 0)
(38.0219 -2.45337 1.46929e-16)
(38.5118 -2.31699 0)
(31.8881 -2.98866 -5.08472e-17)
(34.6581 -2.83315 0)
(32.8967 -2.90047 0)
(26.646 -2.99196 4.5021e-17)
(28.3515 -2.97445 -4.23647e-17)
(29.6313 -3.00406 0)
(24.6549 -2.94766 -4.98485e-17)
(23.5353 -3.02445 -5.26859e-18)
(22.4438 -3.01818 0)
(22.3671 -3.05246 -1.03676e-16)
(21.5204 -3.11043 0)
(21.2216 -3.10988 0)
(26.0535 0.902714 0)
(25.7632 -0.0121494 0)
(27.342 -0.438945 0)
(32.5074 -0.754111 0)
(38.3652 -1.38902 0)
(36.9229 -1.04936 4.42309e-16)
(39.1136 -1.80875 2.93302e-16)
(40.0088 -2.11757 0)
(35.4873 -2.7912 2.26784e-17)
(37.4769 -2.66112 1.51079e-16)
(38.5048 -2.53107 -2.72877e-16)
(39.86 -2.24709 0)
(32.5045 -3.08982 -2.14769e-17)
(34.9136 -2.9132 0)
(34.0682 -2.95432 0)
(25.7093 -3.01374 0)
(27.6626 -2.98914 3.40802e-17)
(30.1478 -3.06741 5.89223e-17)
(24.4937 -3.05684 -4.91162e-17)
(23.272 -3.01231 0)
(23.1039 -3.10541 1.46481e-16)
(22.4666 -3.16752 0)
(21.9392 -3.16114 0)
(21.3929 -3.21683 -8.0899e-17)
(28.4968 1.18821 -8.11207e-16)
(25.5807 0.256572 0)
(30.8464 -0.555699 2.64178e-16)
(35.4563 -0.792618 1.65618e-18)
(39.8848 -1.42412 -1.77438e-16)
(38.9352 -1.12205 -4.65385e-16)
(40.5322 -1.81401 -1.19658e-16)
(41.0875 -2.00128 2.51346e-16)
(36.4676 -2.82417 1.20126e-16)
(37.5387 -2.77729 -7.5702e-17)
(39.565 -2.52676 2.06218e-16)
(40.7467 -2.29883 -5.64148e-17)
(33.9809 -3.06593 -1.19423e-16)
(32.2754 -3.15773 -2.22806e-17)
(35.8815 -2.98064 0)
(25.6428 -3.05416 -7.65562e-17)
(28.1814 -3.11023 0)
(29.45 -3.1777 -1.091e-16)
(31.2313 -3.03688 6.79055e-19)
(24.7545 -3.09119 -3.23032e-17)
(24.3885 -3.0943 9.01073e-17)
(24.2609 -3.18237 -4.0249e-17)
(23.331 -3.22316 1.74196e-18)
(23.3253 -3.31089 -1.1863e-16)
(22.2865 -3.32737 8.22521e-17)
(21.9646 -3.32417 -1.18671e-16)
(27.0609 1.26674 5.29899e-16)
(28.3486 -0.231016 0)
(31.8755 -0.369204 -2.6832e-16)
(36.8003 -0.649557 -4.14571e-16)
(41.1197 -1.66277 0)
(40.1715 -1.30646 5.60671e-16)
(40.0171 -0.942917 0)
(42.2713 -1.95965 -8.59925e-17)
(36.5734 -2.8938 -2.35217e-17)
(38.3596 -2.82459 0)
(39.8246 -2.76114 -1.85949e-16)
(40.4592 -2.47896 -1.18232e-16)
(41.963 -2.27599 5.33435e-17)
(34.8437 -3.13449 8.88941e-17)
(32.923 -3.19453 0)
(35.9644 -3.09017 0)
(26.3116 -3.04697 1.04116e-16)
(27.613 -3.14565 0)
(29.709 -3.17993 1.01166e-16)
(31.801 -3.21505 8.15351e-17)
(25.9242 -3.17297 -2.32697e-17)
(25.0143 -3.23052 0)
(24.3727 -3.22591 -4.02246e-17)
(23.8141 -3.33215 1.19075e-16)
(23.6262 -3.40425 -4.2336e-17)
(22.649 -3.37533 8.33383e-17)
(21.9925 -3.39422 0)
(26.8506 1.14897 8.53454e-16)
(28.5742 -0.0814158 -8.93293e-16)
(34.7749 -0.484342 -3.62697e-16)
(39.0334 -0.743569 -4.7323e-17)
(42.3467 -1.62393 0)
(41.767 -1.18476 -3.64763e-16)
(41.5873 -0.958028 -3.35978e-16)
(43.005 -1.73134 -1.13781e-17)
(42.6713 -2.11031 0)
(37.4177 -2.95661 0)
(38.1774 -3.03659 -8.17072e-17)
(39.3911 -2.75745 1.44643e-16)
(40.8236 -2.76139 -1.64235e-17)
(41.283 -2.59159 0)
(42.4512 -2.40269 0)
(34.9213 -3.27768 7.94236e-17)
(33.9612 -3.23862 0)
(37.0139 -3.09203 0)
(27.9197 -3.27925 0)
(30.4202 -3.2365 -2.19122e-18)
(28.6363 -3.21328 0)
(31.6503 -3.28831 -8.02284e-17)
(26.6905 -3.24309 0)
(26.2973 -3.25407 0)
(25.3991 -3.28778 -1.05251e-16)
(25.1607 -3.38592 1.02262e-16)
(24.6937 -3.40938 6.81578e-17)
(24.1267 -3.44416 0)
(22.7568 -3.46055 0)
(22.2766 -3.44541 4.58841e-17)
(27.2421 0.228741 7.11278e-16)
(34.3394 2.26611 1.01156e-16)
(33.1789 -0.208407 0)
(36.0261 -0.34944 1.86835e-16)
(40.3258 -0.553064 0)
(42.7305 -1.28957 3.83158e-16)
(43.0882 -0.87033 -2.14851e-16)
(44.1148 -1.74512 2.64868e-16)
(43.9384 -2.08989 2.82797e-16)
(39.0798 -3.08299 7.70451e-17)
(39.8349 -2.8998 0)
(41.1827 -2.81044 0)
(41.9481 -2.59729 0)
(43.213 -2.34823 0)
(36.2158 -3.23242 5.17084e-19)
(33.9843 -3.39613 8.59536e-17)
(37.1332 -3.15721 -7.32249e-17)
(30.262 -3.3457 0)
(28.956 -3.32548 0)
(32.5818 -3.39983 2.30697e-17)
(26.8081 -3.24951 0)
(26.3024 -3.32888 7.66343e-17)
(26.0366 -3.40583 -4.88143e-17)
(24.9461 -3.5034 0)
(25.9999 -3.47353 -1.58657e-17)
(24.4664 -3.52464 3.46988e-17)
(23.7405 -3.53924 -1.81612e-18)
(23.1441 -3.54564 -9.91752e-19)
(22.7646 -3.57125 0)
(27.1044 0.300902 1.9588e-15)
(34.4744 1.77526 0)
(34.6265 0.19455 -6.21984e-16)
(38.9298 -0.29448 1.51785e-16)
(42.5934 -0.643527 0)
(43.9921 -1.29717 -2.51504e-16)
(44.4116 -0.836768 4.49378e-16)
(44.5951 -1.89946 -2.48606e-16)
(44.7372 -1.5406 -1.49898e-16)
(44.2473 -2.25584 0)
(39.2303 -3.15946 1.6381e-16)
(40.521 -2.95463 0)
(40.9817 -2.96892 0)
(42.1074 -2.78194 1.52829e-17)
(42.5465 -2.66681 0)
(43.8429 -2.38148 8.87874e-17)
(43.1695 -2.601 0)
(36.639 -3.2799 0)
(34.6394 -3.32879 -4.79615e-17)
(38.4606 -3.15578 -1.13055e-16)
(31.0659 -3.34594 -9.68385e-17)
(28.4594 -3.32089 0)
(32.4393 -3.45898 2.4178e-17)
(27.368 -3.4343 -5.01865e-17)
(27.3618 -3.44638 -7.92373e-17)
(26.2999 -3.61011 0)
(27.1567 -3.55973 0)
(25.4428 -3.54218 0)
(24.368 -3.61849 -4.54404e-17)
(24.1661 -3.66023 -4.03392e-17)
(23.584 -3.69662 0)
(23.1099 -3.6863 1.80752e-17)
(29.4194 1.08628 -1.36915e-15)
(31.5705 0.0640941 2.98135e-16)
(37.8076 2.3692 3.35937e-16)
(38.6047 0.165631 8.51448e-16)
(40.3222 -0.224494 0)
(43.4966 -0.538611 0)
(44.578 -1.1426 3.00306e-16)
(45.4209 -0.759803 0)
(45.4316 -1.89318 0)
(45.532 -1.48162 -1.42556e-16)
(45.0938 -2.21448 -1.79294e-16)
(40.2775 -3.18296 -1.58384e-17)
(41.7796 -3.01729 3.16804e-17)
(42.5603 -2.7607 0)
(42.3274 -2.99535 4.40066e-17)
(44.5827 -2.5497 -2.62397e-16)
(43.6455 -2.66404 0)
(38.0762 -3.36337 -1.43665e-16)
(36.2425 -3.3834 3.66086e-17)
(35.3935 -3.25337 -5.32387e-17)
(33.8018 -3.42617 9.67299e-17)
(38.7388 -3.29262 1.02709e-16)
(31.1298 -3.51112 4.8465e-17)
(28.6843 -3.44923 5.62461e-17)
(33.1374 -3.53082 -5.7209e-17)
(28.383 -3.54118 6.11921e-17)
(26.8348 -3.6891 0)
(27.1982 -3.63796 0)
(28.2796 -3.58993 5.85015e-17)
(26.5305 -3.66695 0)
(25.2384 -3.61588 -4.02044e-17)
(25.1066 -3.69055 -3.24181e-17)
(24.6572 -3.7301 7.64704e-17)
(23.4066 -3.70741 2.60898e-19)
(29.5664 1.1149 0)
(31.5147 0.416335 0)
(40.585 2.63831 -2.24263e-16)
(40.0381 0.0649618 -9.7878e-16)
(42.4396 -0.369962 0)
(45.0429 -0.49609 0)
(45.7147 -1.10805 -4.06501e-16)
(46.2754 -0.881913 0)
(45.6747 -0.498575 0)
(45.7968 -1.71821 0)
(45.7643 -2.02648 0)
(45.9019 -1.3516 -1.24859e-16)
(45.5911 -2.18848 1.48957e-16)
(45.1528 -2.46345 0)
(40.6746 -3.20097 7.82889e-17)
(41.6885 -3.08359 -6.63707e-17)
(43.3211 -2.82337 5.30502e-17)
(42.9936 -2.9994 -6.98029e-17)
(44.3816 -2.66579 2.54695e-16)
(38.4825 -3.4846 -9.02397e-18)
(36.7371 -3.51577 -1.45058e-16)
(35.7454 -3.51151 -3.86451e-17)
(34.2965 -3.52556 -5.03707e-17)
(39.8851 -3.28717 0)
(32.2666 -3.53051 1.08194e-16)
(29.9897 -3.50836 -1.4027e-18)
(29.8689 -3.6348 1.41085e-18)
(28.2277 -3.75915 -6.2535e-17)
(28.2813 -3.71387 0)
(29.0003 -3.66248 -7.27613e-17)
(27.3227 -3.74727 0)
(25.7763 -3.66398 8.1106e-17)
(25.2776 -3.74898 -6.18864e-17)
(25.5342 -3.76375 -3.41727e-17)
(24.0415 -3.65748 0)
(23.6196 -3.79667 3.20483e-17)
(30.406 1.35265 3.23939e-16)
(32.8367 0.400424 -2.5445e-16)
(38.2188 2.42833 6.5984e-16)
(40.0763 0.339714 -8.84777e-17)
(43.2018 -0.0602867 5.00937e-16)
(43.7294 -0.132028 0)
(45.3157 -0.14103 0)
(46.2187 -1.01892 3.22172e-16)
(46.644 -0.706681 0)
(46.5136 -0.456578 0)
(46.3471 -1.69706 0)
(46.3901 -1.97129 0)
(46.4182 -1.34908 1.00423e-16)
(46.1249 -2.30769 1.2544e-16)
(45.748 -2.52176 0)
(40.5836 -3.34282 -5.18605e-17)
(42.154 -3.16711 -3.1013e-17)
(43.5083 -2.90193 -5.09195e-17)
(42.9613 -3.08764 4.21627e-17)
(44.7577 -2.76164 -8.65953e-17)
(39.6525 -3.43143 7.6845e-18)
(37.7087 -3.46128 6.07777e-17)
(35.5688 -3.56038 3.80264e-17)
(34.0854 -3.62216 -4.55209e-17)
(32.5003 -3.51385 -1.01923e-16)
(30.7773 -3.66821 0)
(29.1421 -3.77512 1.02315e-16)
(29.9828 -3.71461 0)
(28.2377 -3.78449 3.28147e-17)
(26.703 -3.74191 0)
(26.626 -3.78259 0)
(25.4252 -3.77867 -4.59114e-17)
(26.7101 -3.86233 5.05873e-17)
(24.1633 -3.83369 0)
(24.2156 -3.85462 -3.41146e-17)
(23.7118 -3.83447 0)
(29.4152 1.06711 -1.129e-15)
(31.3309 0.835582 0)
(37.3727 0.270435 2.21436e-16)
(39.9593 2.54786 -6.64184e-16)
(43.2614 0.400935 3.90289e-16)
(44.7055 0.12491 -3.59857e-16)
(46.075 -0.0878612 0)
(46.6443 -1.10441 -2.46501e-16)
(46.7927 -0.743939 0)
(46.64 -0.328827 0)
(46.569 -1.46367 -1.69383e-16)
(46.5609 -1.84003 1.50235e-17)
(46.5346 -2.12866 -2.37576e-16)
(46.1716 -2.41925 0)
(45.7422 -2.67727 6.49936e-17)
(41.4288 -3.37691 0)
(42.0304 -3.27196 0)
(44.1973 -2.92126 0)
(43.5348 -3.1766 0)
(45.3246 -2.70119 -9.12188e-17)
(40.0041 -3.47334 0)
(38.008 -3.58263 -1.66054e-16)
(36.089 -3.61634 7.92655e-17)
(34.7331 -3.66183 6.36686e-17)
(33.1822 -3.56142 0)
(31.8455 -3.59693 2.56867e-18)
(30.375 -3.75025 -5.13973e-17)
(29.0911 -3.87534 -6.02751e-18)
(28.7633 -3.82794 -4.02408e-17)
(27.3344 -3.82633 0)
(26.1046 -3.91132 5.96378e-17)
(27.5496 -3.86929 -1.20951e-18)
(25.449 -3.89625 0)
(25.2133 -3.92862 2.88294e-17)
(24.5187 -3.91168 0)
(24.298 -3.91848 -1.3297e-17)
(30.9456 1.70293 7.57291e-17)
(32.2752 0.76884 0)
(39.0099 0.521954 -9.93337e-17)
(37.2415 2.23567 -1.22822e-15)
(43.8827 0.526256 -7.32045e-16)
(45.8052 0.262711 3.62018e-16)
(46.6115 -0.237097 0)
(46.1397 0.0253305 0)
(46.8373 -1.07568 -8.24179e-17)
(46.8206 -0.597433 -1.18053e-16)
(46.8622 -0.940622 9.30147e-18)
(46.7829 -0.440337 0)
(46.8876 -1.45428 2.74614e-17)
(46.847 -1.75516 -1.22206e-17)
(46.9045 -2.15919 1.13867e-16)
(46.6508 -2.44175 0)
(46.0026 -2.723 0)
(41.5611 -3.44331 -1.25147e-17)
(42.617 -3.31406 -2.68574e-17)
(44.3068 -3.03846 0)
(43.4471 -3.29006 3.82685e-17)
(45.5573 -2.86761 0)
(39.8686 -3.768 -2.8399e-17)
(41.1831 -3.37698 2.63936e-17)
(37.1848 -3.6509 1.26836e-16)
(39.2703 -3.62168 5.06715e-17)
(35.419 -3.69066 -9.75085e-17)
(34.1596 -3.70978 -2.5954e-17)
(33.3119 -3.68615 -7.68454e-17)
(32.4854 -3.69634 8.49051e-17)
(31.3687 -3.76689 9.62769e-17)
(29.932 -3.85222 0)
(28.3715 -3.88177 0)
(29.3784 -3.84152 -2.14224e-17)
(26.9374 -3.92476 -3.22453e-17)
(28.5801 -3.95693 0)
(25.8578 -3.92843 6.92735e-18)
(25.4907 -3.98358 -5.51408e-17)
(24.9414 -3.96361 1.24367e-17)
(24.4752 -3.96004 -1.36058e-17)
(31.7246 1.39367 3.95894e-16)
(36.3429 0.522852 -3.88867e-16)
(42.0114 0.682601 7.62302e-17)
(40.3721 2.57355 9.87533e-16)
(45.5794 0.590421 2.63579e-16)
(46.2267 0.360963 -2.29299e-16)
(46.7624 -0.00737551 -1.5898e-16)
(46.5823 0.0744864 0)
(46.9482 -1.2327 8.72297e-17)
(46.9088 -0.673383 3.49316e-16)
(46.9296 -0.932237 -1.71573e-16)
(46.8415 -0.289298 0)
(46.9898 -1.37213 1.91573e-16)
(47.0232 -1.81131 1.94298e-17)
(47.0699 -2.0705 -8.06656e-17)
(46.9271 -2.37138 0)
(46.6896 -2.57715 1.6439e-16)
(46.4639 -2.70307 -1.30942e-16)
(42.3906 -3.42501 -1.20386e-17)
(44.9501 -3.02877 3.67787e-17)
(44.0623 -3.32926 -7.23887e-17)
(45.5567 -2.93628 -1.17706e-16)
(41.1011 -3.67272 9.22619e-19)
(37.4565 -3.76193 1.62134e-16)
(39.2852 -3.76567 0)
(35.6722 -3.79092 4.34122e-17)
(34.7304 -3.77223 -3.56844e-17)
(32.4637 -3.80963 -8.14425e-17)
(31.6941 -3.87863 5.5206e-18)
(31.1098 -3.89072 0)
(29.134 -3.92551 0)
(29.9005 -3.87014 3.41001e-17)
(27.5879 -4.01214 2.60704e-17)
(28.7563 -4.0981 -2.39139e-17)
(29.3087 -4.02784 0)
(27.1263 -3.9792 -5.67697e-18)
(26.4245 -3.99884 2.20909e-17)
(25.9205 -4.03252 -4.11223e-17)
(25.2701 -4.02366 -3.37445e-19)
(24.9057 -4.02653 2.03523e-17)
(31.1325 1.35518 6.10077e-16)
(37.5681 0.70947 7.86507e-16)
(43.4145 0.870108 9.39694e-16)
(40.4808 2.47125 -3.29061e-16)
(45.3268 0.827478 -5.02793e-17)
(46.3573 0.639804 1.99623e-16)
(46.6948 0.291965 0)
(46.7834 -0.047017 3.51685e-16)
(47.0173 -1.1968 1.448e-16)
(47.0409 -0.653931 -1.03676e-16)
(47.0182 -1.04953 -1.2997e-16)
(46.9619 -0.302529 0)
(47.069 -1.48698 5.50422e-17)
(47.1757 -1.72894 -2.05369e-17)
(47.2508 -2.12374 9.23012e-17)
(47.1911 -2.4394 -1.01927e-16)
(46.9561 -2.6405 -7.66921e-17)
(46.6082 -2.86731 0)
(42.6731 -3.41894 0)
(45.0564 -3.20508 6.87784e-17)
(44.7656 -3.29947 -2.51401e-18)
(43.6235 -3.44694 7.60685e-17)
(45.9835 -3.01916 5.1196e-18)
(41.416 -3.63604 -9.98184e-18)
(38.4178 -3.81205 -3.59294e-17)
(36.6213 -3.81221 -1.62028e-16)
(40.0418 -3.80578 -7.31378e-18)
(34.5456 -3.84658 1.01864e-16)
(33.3897 -3.86606 -2.44033e-17)
(32.9742 -3.94485 1.05861e-16)
(31.7308 -4.0478 0)
(31.1557 -4.01425 -2.01324e-17)
(29.6219 -4.11994 -3.98613e-17)
(30.8027 -4.06398 0)
(27.4545 -4.01295 -2.14345e-17)
(26.5983 -4.04493 2.14473e-17)
(26.506 -4.0914 1.30961e-17)
(26.2634 -4.11081 4.67166e-17)
(25.7843 -4.11032 -3.50281e-17)
(25.4007 -4.08531 8.02824e-18)
(35.0573 2.48836 -7.3404e-16)
(34.3607 0.605242 -3.41778e-16)
(41.5784 0.903553 -5.00327e-16)
(46.3767 1.11069 -8.49679e-17)
(46.7316 0.733291 -6.39287e-16)
(46.7668 0.377686 -1.13557e-16)
(46.8915 0.088008 -1.67083e-16)
(47.0794 -1.31552 -7.28458e-17)
(47.075 -0.52407 0)
(47.1975 -0.834726 8.88421e-17)
(47.1499 -1.02621 -1.06337e-16)
(47.1413 -0.171092 0)
(47.1585 -1.60376 1.82975e-17)
(47.2589 -1.92389 0)
(47.294 -2.29598 4.23887e-17)
(47.2206 -2.59003 -3.70812e-17)
(46.8958 -2.81787 0)
(46.4895 -2.96802 0)
(42.3572 -3.55887 4.85079e-17)
(45.6699 -3.17992 2.90755e-17)
(45.1817 -3.40181 5.54023e-17)
(43.8301 -3.56914 3.79939e-17)
(41.4831 -3.81375 1.0068e-17)
(38.6313 -3.91352 0)
(36.9423 -3.89605 0)
(41.0203 -3.81929 2.69675e-17)
(39.5532 -3.9381 0)
(35.1661 -3.86688 -1.11696e-16)
(33.5152 -3.99081 -8.70689e-17)
(33.0354 -4.05248 0)
(31.7326 -4.08668 6.59035e-19)
(30.9328 -4.06113 7.11006e-17)
(29.7182 -4.18923 1.05656e-16)
(28.6652 -4.10608 -5.53445e-17)
(27.6794 -4.08933 0)
(27.5213 -4.11209 -1.02263e-17)
(27.0926 -4.20091 -2.83431e-17)
(27.073 -4.23269 4.34499e-17)
(26.0664 -4.11762 0)
(25.3847 -4.15616 0)
(34.3383 2.23945 7.46491e-16)
(34.4415 0.714703 0)
(42.5546 1.12485 4.62068e-16)
(44.9561 1.22951 2.87695e-16)
(46.7817 1.1306 8.70694e-17)
(46.8752 0.88223 1.50636e-16)
(46.8039 0.528024 3.9558e-16)
(46.8322 0.213896 2.13221e-17)
(47.112 0.0113506 2.23301e-16)
(47.1863 -1.34609 0)
(47.268 -0.502571 0)
(47.3954 -0.7422 2.14118e-17)
(47.2869 -1.13232 1.68418e-16)
(47.3221 -0.227426 0)
(47.2098 -1.57499 0)
(47.3641 -1.96301 0)
(47.4195 -2.33026 -1.36844e-17)
(47.4633 -2.65409 6.92979e-17)
(47.0246 -2.90668 -3.00293e-18)
(46.7969 -3.05623 -8.97686e-19)
(43.002 -3.69277 -1.6225e-16)
(45.7661 -3.25975 -1.67588e-16)
(45.0999 -3.46949 0)
(44.3353 -3.53524 2.94399e-17)
(42.6319 -3.77411 6.40665e-17)
(38.0569 -3.93391 0)
(36.231 -3.93122 8.83724e-18)
(41.3793 -3.91032 -4.52185e-17)
(39.8671 -3.98474 0)
(34.5321 -3.96565 3.88173e-17)
(33.7967 -4.06077 1.80035e-17)
(32.9434 -4.10346 8.93037e-17)
(31.8614 -4.05908 -4.22083e-17)
(30.8634 -4.20018 -8.23556e-17)