/*--------------------------------*- C++ -*----------------------------------*\
| =========                 |                                                 |
| \\      /  F ield         | OpenFOAM: The Open Source CFD Toolbox           |
|  \\    /   O peration     | Version:  v1912                                 |
|   \\  /    A nd           | Website:  www.openfoam.com                      |
|    \\/     M anipulation  |                                                 |
\*---------------------------------------------------------------------------*/
FoamFile
{
    version     2.0;
    format      ascii;
    class       volScalarField;
    location    "10000";
    object      k;
}
// * * * * * * * * * * * * * * * * * * * * * * * * * * * * * * * * * * * * * //

dimensions      [0 2 -2 0 0 0 0];


internalField   nonuniform List<scalar> 
3000
(
0.00204408
0.00138269
0.000827276
5.95853e-05
0.000410121
0.000367884
0.000186357
9.78398e-05
5.56848e-05
3.48048e-05
2.23993e-05
1.52021e-05
1.37037e-05
1.13333e-05
8.03475e-06
4.72901e-06
1.81402e-06
2.09464e-07
2.80257e-07
1.09736e-06
2.33888e-06
4.09217e-06
5.53416e-06
4.12565e-06
2.12583e-06
1.30894e-06
2.79891e-06
1.31175e-05
3.06588e-05
5.31834e-05
7.69966e-05
9.83221e-05
0.000114341
0.000123566
0.000125653
0.000120988
0.000110154
9.38526e-05
7.40226e-05
5.32631e-05
3.42632e-05
1.92038e-05
9.13806e-06
3.86341e-06
2.40963e-06
7.75238e-06
1.64422e-05
2.36665e-05
2.88061e-05
3.35109e-05
3.93609e-05
4.48783e-05
4.78176e-05
4.85655e-05
4.95511e-05
4.64623e-05
3.80531e-05
2.53325e-05
1.22105e-05
4.11604e-06
9.09112e-06
4.90334e-05
0.000125756
0.000241578
0.000395468
0.000583315
0.000798334
0.00103153
0.0012724
0.00150978
0.00173233
0.0019283
0.00208355
0.00217538
0.00216141
0.00198158
0.00163451
0.00130853
0.00113402
0.0010645
0.00104164
0.00103719
0.00103013
0.000996066
0.000906873
0.000756891
0.000564554
0.000361153
0.000180239
4.92479e-05
1.46521e-06
8.63347e-05
0.000362703
0.00099972
0.00224057
0.00426745
0.00660411
0.00773473
0.00650863
0.00391462
0.000647086
0.00042042
0.000282505
0.00010132
6.66598e-05
4.30362e-05
2.24964e-05
1.22343e-05
7.1206e-06
4.45703e-06
2.86793e-06
1.97806e-06
1.72888e-06
1.42818e-06
1.03059e-06
6.30127e-07
2.74735e-07
6.07407e-08
3.82523e-08
1.21845e-07
2.6165e-07
4.72909e-07
6.50446e-07
5.24026e-07
3.94111e-07
6.89288e-07
1.73794e-06
3.93836e-06
6.83742e-06
9.86543e-06
1.24281e-05
1.41173e-05
1.47892e-05
1.45228e-05
1.35069e-05
1.19549e-05
1.00486e-05
8.1277e-06
6.15244e-06
4.29407e-06
2.72875e-06
1.57157e-06
8.52518e-07
5.43379e-07
6.24453e-07
1.2593e-06
2.19734e-06
3.00318e-06
3.65711e-06
4.29746e-06
4.98527e-06
5.62154e-06
6.05531e-06
6.28136e-06
6.27227e-06
5.5955e-06
4.57061e-06
4.04486e-06
4.86748e-06
8.55451e-06
1.70324e-05
3.20627e-05
5.3411e-05
8.03419e-05
0.000111467
0.000144928
0.000178585
0.000210167
0.000237395
0.000258042
0.000269906
0.000270877
0.00025909
0.000233335
0.000196034
0.000158024
0.000130514
0.000115651
0.000109904
0.00010813
0.000107761
0.000107148
0.000104657
9.79885e-05
8.60253e-05
6.95926e-05
5.06909e-05
3.19206e-05
1.57887e-05
4.03568e-06
8.5902e-07
1.1228e-05
3.87e-05
9.29588e-05
0.000182466
0.000308492
0.000471837
0.000868061
0.00117926
0.00100151
0.000288789
0.000243631
0.000198059
0.000119099
6.51419e-05
1.78768e-05
4.26953e-06
2.17581e-06
1.34544e-06
8.72339e-07
5.8246e-07
4.34491e-07
3.68141e-07
2.95243e-07
2.13365e-07
1.36542e-07
7.52792e-08
4.11948e-08
3.83489e-08
5.5636e-08
8.78436e-08
1.43816e-07
2.272e-07
3.27934e-07
5.2292e-07
8.94571e-07
1.44273e-06
2.09105e-06
2.66569e-06
3.02757e-06
3.11e-06
2.93208e-06
2.57574e-06
2.13635e-06
1.71225e-06
1.36775e-06
1.1288e-06
9.17587e-07
7.34359e-07
5.87564e-07
4.83584e-07
4.23992e-07
4.04741e-07
4.21517e-07
4.72142e-07
5.55839e-07
6.52297e-07
7.42014e-07
8.30207e-07
9.40991e-07
1.06629e-06
1.22183e-06
1.51401e-06
2.08403e-06
2.80883e-06
3.84511e-06
5.50305e-06
8.16148e-06
1.21384e-05
1.76657e-05
2.4752e-05
3.30322e-05
4.1777e-05
5.0165e-05
5.73689e-05
6.26592e-05
6.54924e-05
6.55624e-05
6.28239e-05
5.75049e-05
5.01236e-05
4.14691e-05
3.24478e-05
2.44421e-05
1.92403e-05
1.62402e-05
1.44492e-05
1.42119e-05
1.42602e-05
1.4071e-05
1.3689e-05
1.30935e-05
1.21996e-05
1.08551e-05
9.11375e-06
7.15492e-06
5.15289e-06
3.29305e-06
1.73121e-06
4.57634e-07
3.47451e-07
1.47792e-06
3.98946e-06
8.07185e-06
1.35629e-05
2.03261e-05
3.1426e-05
9.45264e-05
0.000254931
0.000324388
0.000100079
0.000108732
0.000118982
0.00010229
6.98607e-05
3.56417e-05
3.72169e-06
4.96326e-07
2.93533e-07
2.0007e-07
1.44768e-07
1.19358e-07
1.03102e-07
8.76083e-08
7.43859e-08
6.55575e-08
6.21788e-08
6.50781e-08
7.46627e-08
9.19449e-08
1.22329e-07
1.77285e-07
2.5995e-07
3.76045e-07
5.29272e-07
7.03702e-07
8.65545e-07
9.7355e-07
9.97368e-07
9.3782e-07
8.22487e-07
6.90379e-07
5.74173e-07
4.95112e-07
4.59564e-07
4.60991e-07
4.71521e-07
4.86339e-07
5.05376e-07
5.28749e-07
5.56316e-07
5.87491e-07
6.20995e-07
6.54927e-07
6.8658e-07
7.13696e-07
7.34678e-07
7.53626e-07
7.93604e-07
9.17924e-07
1.23358e-06
1.73426e-06
2.44451e-06
3.43184e-06
4.75365e-06
6.48987e-06
8.68909e-06
1.13155e-05
1.42309e-05
1.72109e-05
1.99485e-05
2.20996e-05
2.337e-05
2.35868e-05
2.27149e-05
2.08569e-05
1.823e-05
1.51226e-05
1.18656e-05
8.77425e-06
6.11204e-06
4.05089e-06
2.68819e-06
2.05332e-06
1.73068e-06
1.52708e-06
1.42067e-06
1.43272e-06
1.42945e-06
1.37576e-06
1.29712e-06
1.20236e-06
1.08966e-06
9.5205e-07
7.99247e-07
6.46003e-07
5.00657e-07
3.70697e-07
2.48987e-07
1.72845e-07
1.73362e-07
2.54785e-07
4.12307e-07
6.27458e-07
8.69377e-07
1.14241e-06
1.71331e-06
6.18915e-06
4.72627e-05
8.9355e-05
2.64956e-05
3.63017e-05
5.65094e-05
6.9389e-05
6.20542e-05
4.24533e-05
2.10454e-05
1.15049e-06
2.06782e-07
1.15077e-07
7.87899e-08
7.17396e-08
7.05841e-08
7.3645e-08
7.86586e-08
8.6127e-08
9.54163e-08
1.07247e-07
1.22905e-07
1.45172e-07
1.77596e-07
2.22775e-07
2.82714e-07
3.55248e-07
4.27509e-07
4.85598e-07
5.20547e-07
5.29938e-07
5.20271e-07
5.04383e-07
4.94879e-07
4.98823e-07
5.17361e-07
5.47184e-07
5.8343e-07
6.21084e-07
6.60325e-07
7.02122e-07
7.47373e-07
7.969e-07
8.51501e-07
9.1195e-07
9.78797e-07
1.05263e-06
1.13541e-06
1.23021e-06
1.34542e-06
1.49931e-06
1.72427e-06
2.05273e-06
2.49522e-06
3.08856e-06
3.86729e-06
4.83346e-06
5.9668e-06
7.21678e-06
8.48448e-06
9.62896e-06
1.04989e-05
1.09633e-05
1.09344e-05
1.0393e-05
9.39866e-06
8.07254e-06
6.56823e-06
5.04394e-06
3.63643e-06
2.445e-06
1.5243e-06
8.80797e-07
4.82615e-07
2.77801e-07
2.07013e-07
1.80628e-07
1.65479e-07
1.57231e-07
1.55259e-07
1.60178e-07
1.63388e-07
1.63673e-07
1.63421e-07
1.63388e-07
1.63408e-07
1.63061e-07
1.62771e-07
1.62846e-07
1.63597e-07
1.63407e-07
1.62831e-07
1.63923e-07
1.68847e-07
1.79076e-07
1.9424e-07
2.12148e-07
2.30191e-07
2.46956e-07
2.70703e-07
4.21933e-07
7.51071e-06
2.0163e-05
5.6675e-06
9.51357e-06
2.18229e-05
3.90908e-05
4.61952e-05
4.03305e-05
2.76997e-05
1.51104e-05
1.03761e-06
2.86462e-07
1.11232e-07
9.78692e-08
1.00794e-07
1.09191e-07
1.18833e-07
1.30623e-07
1.43454e-07
1.57994e-07
1.75831e-07
1.98182e-07
2.26622e-07
2.61055e-07
3.03707e-07
3.51402e-07
3.96287e-07
4.33492e-07
4.63681e-07
4.89817e-07
5.15741e-07
5.44089e-07
5.75443e-07
6.09207e-07
6.43173e-07
6.75813e-07
7.07031e-07
7.43033e-07
7.85895e-07
8.36451e-07
8.95668e-07
9.64776e-07
1.04535e-06
1.13914e-06
1.24838e-06
1.37603e-06
1.52504e-06
1.69852e-06
1.90107e-06
2.14085e-06
2.4173e-06
2.73159e-06
3.10296e-06
3.56219e-06
4.09658e-06
4.67095e-06
5.22885e-06
5.69563e-06
5.98882e-06
6.04121e-06
5.82179e-06
5.34242e-06
4.65514e-06
3.84163e-06
2.99494e-06
2.19845e-06
1.51224e-06
9.68792e-07
5.7419e-07
3.1428e-07
1.62114e-07
8.54225e-08
5.51596e-08
4.88858e-08
5.0603e-08
5.38734e-08
5.81982e-08
6.35407e-08
6.99537e-08
7.74473e-08
8.54467e-08
9.39986e-08
1.03296e-07
1.13323e-07
1.23996e-07
1.34927e-07
1.46197e-07
1.56682e-07
1.66978e-07
1.74141e-07
1.80531e-07
1.86764e-07
1.93705e-07
2.0242e-07
2.13034e-07
2.24636e-07
2.35869e-07
2.44634e-07
2.47478e-07
2.49265e-07
1.18834e-06
3.88782e-06
1.15215e-06
2.14615e-06
7.10168e-06
1.88058e-05
2.94508e-05
3.22132e-05
2.7756e-05
1.99978e-05
1.17107e-05
3.64167e-06
3.02414e-07
1.43734e-07
1.45437e-07
1.55361e-07
1.66416e-07
1.79442e-07
1.93541e-07
2.09423e-07
2.27354e-07
2.47447e-07
2.69854e-07
2.96757e-07
3.28284e-07
3.62399e-07
3.9456e-07
4.21664e-07
4.44143e-07
4.62961e-07
4.78734e-07
4.92004e-07
5.03458e-07
5.14202e-07
5.24972e-07
5.378e-07
5.58027e-07
5.87749e-07
6.26936e-07
6.76138e-07
7.36257e-07
8.08528e-07
8.94389e-07
9.95557e-07
1.11399e-06
1.25171e-06
1.40972e-06
1.58839e-06
1.78946e-06
2.00707e-06
2.2365e-06
2.47073e-06
2.72873e-06
2.99881e-06
3.25828e-06
3.4723e-06
3.59863e-06
3.59683e-06
3.44163e-06
3.13521e-06
2.70844e-06
2.21189e-06
1.70294e-06
1.23278e-06
8.36817e-07
5.30903e-07
3.13911e-07
1.73547e-07
9.20384e-08
5.0914e-08
3.41316e-08
2.99367e-08
3.11393e-08
3.43777e-08
3.83335e-08
4.30431e-08
4.86392e-08
5.52862e-08
6.31517e-08
7.23411e-08
8.26264e-08
9.4074e-08
1.06707e-07
1.20079e-07
1.34718e-07
1.49344e-07
1.6419e-07
1.77111e-07
1.88048e-07
1.97516e-07
2.06059e-07
2.14247e-07
2.22833e-07
2.32663e-07
2.43724e-07
2.55111e-07
2.65571e-07
2.73268e-07
2.75145e-07
2.69942e-07
3.61884e-07
8.01432e-07
3.92329e-07
5.79008e-07
2.0889e-06
7.87862e-06
1.62693e-05
2.20774e-05
2.30888e-05
2.02585e-05
1.54229e-05
1.007e-05
6.22612e-06
3.77018e-07
2.23414e-07
1.83457e-07
1.78736e-07
1.91233e-07
2.03281e-07
2.1639e-07
2.30513e-07
2.45988e-07
2.63042e-07
2.81466e-07
2.99997e-07
3.15619e-07
3.24439e-07
3.26641e-07
3.22769e-07
3.1371e-07
3.00878e-07
2.86169e-07
2.72331e-07
2.60695e-07
2.54826e-07
2.57508e-07
2.71033e-07
2.90811e-07
3.17316e-07
3.51495e-07
3.94644e-07
4.48295e-07
5.1412e-07
5.93824e-07
6.89189e-07
8.01187e-07
9.3045e-07
1.07643e-06
1.23551e-06
1.40362e-06
1.57547e-06
1.75408e-06
1.92163e-06
2.06437e-06
2.16389e-06
2.19889e-06
2.15019e-06
2.0081e-06
1.77934e-06
1.48853e-06
1.17151e-06
8.65126e-07
5.98279e-07
3.86951e-07
2.34085e-07
1.33027e-07
7.23561e-08
3.99073e-08
2.51148e-08
2.00624e-08
1.95802e-08
2.09357e-08
2.30442e-08
2.59464e-08
2.96563e-08
3.43372e-08
4.01768e-08
4.73991e-08
5.62886e-08
6.70781e-08
7.98359e-08
9.501e-08
1.12156e-07
1.29497e-07
1.48866e-07
1.67766e-07
1.84282e-07
1.99378e-07
2.12826e-07
2.24565e-07
2.35069e-07
2.44904e-07
2.54742e-07
2.65237e-07
2.76237e-07
2.86861e-07
2.96018e-07
3.02269e-07
3.03338e-07
2.97953e-07
2.96533e-07
3.45198e-07
3.11019e-07
3.31693e-07
6.93377e-07
2.9707e-06
7.84742e-06
1.30705e-05
1.63337e-05
1.69323e-05
1.53522e-05
1.25186e-05
9.42134e-06
6.07576e-06
3.91025e-06
7.12812e-07
1.86667e-07
1.62922e-07
1.58312e-07
1.70374e-07
1.81017e-07
1.91944e-07
2.0338e-07
2.1419e-07
2.21977e-07
2.22855e-07
2.14296e-07
2.002e-07
1.81923e-07
1.61135e-07
1.39977e-07
1.20611e-07
1.04396e-07
9.35718e-08
9.01842e-08
9.52021e-08
1.01986e-07
1.09295e-07
1.17545e-07
1.27706e-07
1.41261e-07
1.60177e-07
1.86896e-07
2.24214e-07
2.74962e-07
3.41719e-07
4.26601e-07
5.3062e-07
6.50517e-07
7.82651e-07
9.21042e-07
1.0624e-06
1.18459e-06
1.27557e-06
1.32267e-06
1.31445e-06
1.24431e-06
1.11474e-06
9.39669e-07
7.423e-07
5.47938e-07
3.77191e-07
2.41939e-07
1.44734e-07
8.11858e-08
4.34772e-08
2.33897e-08
1.40266e-08
1.04001e-08
9.40465e-09
9.49422e-09
1.0257e-08
1.20801e-08
1.48333e-08
1.86608e-08
2.37628e-08
3.0314e-08
3.84649e-08
4.85159e-08
6.1349e-08
7.75357e-08
9.78512e-08
1.21755e-07
1.44453e-07
1.67114e-07
1.88872e-07
2.09034e-07
2.27198e-07
2.43122e-07
2.56822e-07
2.68819e-07
2.79683e-07
2.90003e-07
3.00262e-07
3.1023e-07
3.19134e-07
3.26143e-07
3.30291e-07
3.30124e-07
3.24912e-07
3.16362e-07
3.12672e-07
3.25691e-07
3.20648e-07
3.84344e-07
1.11494e-06
3.36535e-06
6.70703e-06
9.88239e-06
1.19135e-05
1.24904e-05
1.18295e-05
1.0391e-05
8.4797e-06
6.54845e-06
4.52059e-06
3.05168e-06
1.95647e-06
2.6604e-07
1.33745e-07
1.29726e-07
1.30135e-07
1.33686e-07
1.39576e-07
1.44785e-07
1.42585e-07
1.31742e-07
1.17548e-07
1.0192e-07
8.68923e-08
7.43326e-08
6.57975e-08
6.31363e-08
6.9465e-08
8.44288e-08
1.00017e-07
1.1238e-07
1.20367e-07
1.23707e-07
1.22609e-07
1.1761e-07
1.09533e-07
9.95752e-08
8.95028e-08
8.19502e-08
8.07053e-08
9.07556e-08
1.18093e-07
1.6888e-07
2.50794e-07
3.69485e-07
5.03582e-07
6.2442e-07
7.21645e-07
7.85472e-07
8.07833e-07
7.8438e-07
7.16771e-07
6.05792e-07
4.79771e-07
3.57412e-07
2.50035e-07
1.64501e-07
1.02164e-07
6.03584e-08
3.44876e-08
1.97089e-08
1.19001e-08
7.97679e-09
5.88271e-09
4.43185e-09
4.0782e-09
5.78979e-09
8.88144e-09
1.33967e-08
1.96616e-08
2.78618e-08
3.78872e-08
4.95776e-08
6.57313e-08
8.69993e-08
1.12003e-07
1.39176e-07
1.67031e-07
1.94414e-07
2.20186e-07
2.43541e-07
2.64057e-07
2.81566e-07
2.96205e-07
3.08564e-07
3.19216e-07
3.2868e-07
3.37312e-07
3.44889e-07
3.50848e-07
3.54697e-07
3.55985e-07
3.54092e-07
3.48863e-07
3.40972e-07
3.32805e-07
3.46651e-07
3.39522e-07
3.42051e-07
5.30517e-07
1.37121e-06
3.03019e-06
5.13006e-06
7.08457e-06
8.45019e-06
9.06959e-06
9.0178e-06
8.42682e-06
7.49232e-06
6.33257e-06
5.16391e-06
4.04956e-06
2.9555e-06
2.13971e-06
1.51634e-06
1.00201e-06
5.42946e-07
1.53397e-07
9.64537e-08
9.87361e-08
9.21696e-08
8.31895e-08
7.31984e-08
6.37402e-08
5.76612e-08
6.12173e-08
8.96152e-08
1.30312e-07
1.69309e-07
2.01548e-07
2.25493e-07
2.41017e-07
2.48585e-07
2.48905e-07
2.42791e-07
2.31096e-07
2.14691e-07
1.94462e-07
1.71325e-07
1.46265e-07
1.20414e-07
9.52853e-08
7.3122e-08
5.9093e-08
6.46484e-08
9.57092e-08
1.50162e-07
2.18711e-07
2.87862e-07
3.44361e-07
3.78699e-07
3.86781e-07
3.68524e-07
3.31123e-07
2.83359e-07
2.32863e-07
1.85283e-07
1.43941e-07
1.10115e-07
8.3681e-08
6.37668e-08
4.9213e-08
3.8819e-08
3.14628e-08
2.62446e-08
2.29763e-08
2.17389e-08
2.29505e-08
2.69935e-08
3.40244e-08
4.38803e-08
5.61061e-08
7.02583e-08
8.96181e-08
1.15016e-07
1.44748e-07
1.76693e-07
2.08869e-07
2.39732e-07
2.67915e-07
2.92577e-07
3.13398e-07
3.30382e-07
3.43848e-07
3.54471e-07
3.62839e-07
3.69426e-07
3.74522e-07
3.78004e-07
3.79602e-07
3.79205e-07
3.76876e-07
3.7278e-07
3.67291e-07
3.60587e-07
3.53347e-07
3.59509e-07
3.53617e-07
3.47864e-07
3.83223e-07
6.35677e-07
1.28779e-06
2.33499e-06
3.5837e-06
4.77419e-06
5.71352e-06
6.31933e-06
6.57422e-06
6.51508e-06
6.19328e-06
5.68995e-06
5.0763e-06
4.40381e-06
3.75006e-06
3.15171e-06
2.61832e-06
2.15195e-06
1.75737e-06
1.4459e-06
1.20701e-06
1.01054e-06
8.51361e-07
7.26969e-07
6.34421e-07
5.73778e-07
5.51255e-07
5.49429e-07
5.56357e-07
5.65886e-07
5.73915e-07
5.7792e-07
5.76532e-07
5.69171e-07
5.55778e-07
5.3661e-07
5.12113e-07
4.82843e-07
4.49427e-07
4.12559e-07
3.73039e-07
3.31889e-07
2.90618e-07
2.5213e-07
2.17214e-07
1.85787e-07
1.59287e-07
1.39548e-07
1.27982e-07
1.24688e-07
1.28021e-07
1.34978e-07
1.4215e-07
1.46634e-07
1.46895e-07
1.42765e-07
1.34988e-07
1.24739e-07
1.13217e-07
1.01423e-07
9.0071e-08
7.96159e-08
7.03051e-08
6.22359e-08
5.54759e-08
5.10918e-08
4.97728e-08
5.16879e-08
5.70328e-08
6.57758e-08
7.76153e-08
9.20116e-08
1.08258e-07
1.25849e-07
1.49459e-07
1.79514e-07
2.13292e-07
2.48031e-07
2.81455e-07
3.11966e-07
3.38331e-07
3.59988e-07
3.76941e-07
3.89503e-07
3.98229e-07
4.03873e-07
4.07029e-07
4.08138e-07
4.07468e-07
4.05058e-07
4.00957e-07
3.95407e-07
3.88905e-07
3.82288e-07
3.7635e-07
3.70815e-07
3.65041e-07
3.57693e-07
3.53518e-07
3.49256e-07
3.52112e-07
4.11471e-07
6.13752e-07
1.01651e-06
1.6035e-06
2.2921e-06
2.98447e-06
3.60575e-06
4.10356e-06
4.45073e-06
4.63803e-06
4.67183e-06
4.57258e-06
4.36795e-06
4.09402e-06
3.78533e-06
3.46908e-06
3.16584e-06
2.89165e-06
2.65933e-06
2.46798e-06
2.2949e-06
2.14003e-06
2.00518e-06
1.89179e-06
1.79913e-06
1.71721e-06
1.64298e-06
1.57491e-06
1.51169e-06
1.45217e-06
1.39542e-06
1.34069e-06
1.28737e-06
1.235e-06
1.18321e-06
1.13175e-06
1.0804e-06
1.02905e-06
9.77636e-07
9.26181e-07
8.74872e-07
8.24336e-07
7.74188e-07
7.23594e-07
6.72865e-07
6.22459e-07
5.73008e-07
5.25272e-07
4.80041e-07
4.37997e-07
3.99576e-07
3.64904e-07
3.33831e-07
3.06025e-07
2.81097e-07
2.58677e-07
2.38457e-07
2.20205e-07
2.03753e-07
1.88983e-07
1.7583e-07
1.64306e-07
1.54814e-07
1.49886e-07
1.49897e-07
1.54303e-07
1.62688e-07
1.74458e-07
1.88887e-07
2.05168e-07
2.22482e-07
2.40053e-07
2.57529e-07
2.80872e-07
3.09547e-07
3.39791e-07
3.68647e-07
3.94159e-07
4.15251e-07
4.31321e-07
4.42391e-07
4.48908e-07
4.51499e-07
4.50871e-07
4.47725e-07
4.42574e-07
4.35774e-07
4.27546e-07
4.18067e-07
4.07633e-07
3.96722e-07
3.86102e-07
3.77066e-07
3.70664e-07
3.66208e-07
3.61931e-07
3.34559e-07
3.32106e-07
3.3068e-07
3.31173e-07
3.43305e-07
3.93554e-07
5.13784e-07
7.21651e-07
1.00916e-06
1.35124e-06
1.71961e-06
2.08592e-06
2.42576e-06
2.71954e-06
2.9506e-06
3.10954e-06
3.19518e-06
3.21373e-06
3.17733e-06
3.10145e-06
3.00119e-06
2.89021e-06
2.78005e-06
2.67735e-06
2.58045e-06
2.48922e-06
2.4033e-06
2.32201e-06
2.24409e-06
2.16929e-06
2.09749e-06
2.02862e-06
1.96261e-06
1.8994e-06
1.83891e-06
1.78106e-06
1.72576e-06
1.67288e-06
1.62229e-06
1.57386e-06
1.52743e-06
1.48283e-06
1.43987e-06
1.3983e-06
1.35771e-06
1.31713e-06
1.27582e-06
1.23374e-06
1.19089e-06
1.14736e-06
1.10328e-06
1.05891e-06
1.01452e-06
9.7051e-07
9.27254e-07
8.85143e-07
8.44533e-07
8.05722e-07
7.68948e-07
7.34393e-07
7.02189e-07
6.72443e-07
6.45243e-07
6.20688e-07
5.98923e-07
5.80313e-07
5.65763e-07
5.54046e-07
5.44577e-07
5.37182e-07
5.31617e-07
5.27582e-07
5.24738e-07
5.22735e-07
5.21224e-07
5.19883e-07
5.18576e-07
5.20039e-07
5.23809e-07
5.27852e-07
5.30573e-07
5.3096e-07
5.28536e-07
5.23202e-07
5.15221e-07
5.05045e-07
4.93187e-07
4.80122e-07
4.66188e-07
4.51606e-07
4.36507e-07
4.20965e-07
4.05175e-07
3.89521e-07
3.74526e-07
3.61014e-07
3.50444e-07
3.43904e-07
3.40408e-07
3.3752e-07
2.85058e-07
2.84066e-07
2.85059e-07
2.88397e-07
2.94503e-07
3.08174e-07
3.38964e-07
3.96775e-07
4.86527e-07
6.07477e-07
7.55779e-07
9.24983e-07
1.10729e-06
1.29417e-06
1.47488e-06
1.6387e-06
1.77702e-06
1.88381e-06
1.95668e-06
1.99756e-06
2.01015e-06
1.99877e-06
1.96774e-06
1.92513e-06
1.88246e-06
1.84023e-06
1.79873e-06
1.75828e-06
1.71884e-06
1.68041e-06
1.64301e-06
1.60666e-06
1.57143e-06
1.53736e-06
1.50449e-06
1.47286e-06
1.44251e-06
1.41343e-06
1.38564e-06
1.35912e-06
1.33382e-06
1.30972e-06
1.28675e-06
1.26477e-06
1.24354e-06
1.22285e-06
1.20259e-06
1.18265e-06
1.16292e-06
1.14331e-06
1.12372e-06
1.10409e-06
1.08438e-06
1.06458e-06
1.0447e-06
1.02481e-06
1.00498e-06
9.85318e-07
9.65938e-07
9.46971e-07
9.28552e-07
9.10817e-07
8.939e-07
8.77912e-07
8.62872e-07
8.48468e-07
8.34142e-07
8.19796e-07
8.05418e-07
7.91001e-07
7.76544e-07
7.62049e-07
7.47527e-07
7.32998e-07
7.18486e-07
7.04027e-07
6.89568e-07
6.7322e-07
6.54522e-07
6.33935e-07
6.11911e-07
5.8887e-07
5.65192e-07
5.41348e-07
5.17746e-07
4.94682e-07
4.72384e-07
4.50962e-07
4.3034e-07
4.10426e-07
3.91115e-07
3.72318e-07
3.54161e-07
3.36971e-07
3.21176e-07
3.07477e-07
2.97199e-07
2.91283e-07
2.88599e-07
2.86888e-07
2.11336e-07
2.11592e-07
2.14503e-07
2.20661e-07
2.28859e-07
2.38621e-07
2.51537e-07
2.70458e-07
2.98047e-07
3.3611e-07
3.85751e-07
4.47122e-07
5.19557e-07
6.0159e-07
6.89938e-07
7.79963e-07
8.66498e-07
9.44185e-07
1.00843e-06
1.05677e-06
1.08783e-06
1.10108e-06
1.09671e-06
1.08001e-06
1.06307e-06
1.04647e-06
1.0302e-06
1.01424e-06
9.98591e-07
9.83266e-07
9.68284e-07
9.53666e-07
9.39438e-07
9.25628e-07
9.12261e-07
8.9936e-07
8.86944e-07
8.75028e-07
8.63621e-07
8.52728e-07
8.42349e-07
8.32481e-07
8.23124e-07
8.14294e-07
8.06067e-07
7.98495e-07
7.91521e-07
7.85074e-07
7.79078e-07
7.73451e-07
7.68104e-07
7.62949e-07
7.57896e-07
7.52861e-07
7.47765e-07
7.42536e-07
7.37116e-07
7.31454e-07
7.25512e-07
7.19262e-07
7.1268e-07
7.05748e-07
6.98427e-07
6.90576e-07
6.82078e-07
6.73194e-07
6.63928e-07
6.54295e-07
6.44317e-07
6.34024e-07
6.23457e-07
6.12659e-07
6.01686e-07
5.90596e-07
5.79452e-07
5.68322e-07
5.57161e-07
5.43567e-07
5.26998e-07
5.0814e-07
4.87677e-07
4.66222e-07
4.44299e-07
4.22483e-07
4.01214e-07
3.80773e-07
3.61339e-07
3.42969e-07
3.25542e-07
3.08941e-07
2.93051e-07
2.77777e-07
2.63214e-07
2.49608e-07
2.3727e-07
2.26713e-07
2.18928e-07
2.14605e-07
2.12805e-07
2.12149e-07
1.40646e-07
1.41508e-07
1.44973e-07
1.51809e-07
1.60856e-07
1.70827e-07
1.81409e-07
1.92984e-07
2.06232e-07
2.21981e-07
2.41129e-07
2.64413e-07
2.92368e-07
3.25262e-07
3.62565e-07
4.02918e-07
4.44308e-07
4.84092e-07
5.19439e-07
5.48203e-07
5.6864e-07
5.79471e-07
5.8003e-07
5.73316e-07
5.6657e-07
5.5993e-07
5.53395e-07
5.46971e-07
5.40664e-07
5.34482e-07
5.28434e-07
5.22533e-07
5.16791e-07
5.11218e-07
5.05826e-07
5.00625e-07
4.95624e-07
4.90829e-07
4.86245e-07
4.81874e-07
4.7772e-07
4.73782e-07
4.70066e-07
4.66598e-07
4.63464e-07
4.60704e-07
4.58288e-07
4.56181e-07
4.54345e-07
4.52736e-07
4.51303e-07
4.49995e-07
4.48755e-07
4.47523e-07
4.46239e-07
4.44844e-07
4.43279e-07
4.41486e-07
4.39412e-07
4.37006e-07
4.34217e-07
4.30983e-07
4.2719e-07
4.22938e-07
4.18427e-07
4.13662e-07
4.08651e-07
4.03409e-07
3.97954e-07
3.92312e-07
3.86508e-07
3.80576e-07
3.74549e-07
3.68465e-07
3.62362e-07
3.56282e-07
3.5019e-07
3.4251e-07
3.32865e-07
3.21685e-07
3.09408e-07
2.96429e-07
2.83091e-07
2.6977e-07
2.56754e-07
2.44227e-07
2.32305e-07
2.21024e-07
2.10309e-07
2.00087e-07
1.90286e-07
1.80849e-07
1.71837e-07
1.63409e-07
1.55763e-07
1.49227e-07
1.44433e-07
1.41825e-07
1.40803e-07
1.40799e-07
9.38112e-08
9.44989e-08
9.69913e-08
1.02024e-07
1.0901e-07
1.17018e-07
1.25537e-07
1.34351e-07
1.43409e-07
1.5287e-07
1.63069e-07
1.74364e-07
1.87109e-07
2.01614e-07
2.17899e-07
2.35639e-07
2.54178e-07
2.7246e-07
2.89184e-07
3.03222e-07
3.13541e-07
3.19301e-07
3.19997e-07
3.17133e-07
3.14241e-07
3.11387e-07
3.08575e-07
3.05808e-07
3.03089e-07
3.00423e-07
2.97815e-07
2.9527e-07
2.92793e-07
2.90389e-07
2.88062e-07
2.85817e-07
2.83657e-07
2.81585e-07
2.79603e-07
2.77711e-07
2.7591e-07
2.74199e-07
2.7258e-07
2.7106e-07
2.69659e-07
2.68443e-07
2.67376e-07
2.66442e-07
2.65622e-07
2.64895e-07
2.64238e-07
2.63624e-07
2.63025e-07
2.6241e-07
2.6175e-07
2.6101e-07
2.6016e-07
2.59168e-07
2.58001e-07
2.56625e-07
2.5499e-07
2.53068e-07
2.50967e-07
2.48733e-07
2.46367e-07
2.43874e-07
2.4126e-07
2.38534e-07
2.35707e-07
2.32793e-07
2.29805e-07
2.26761e-07
2.23679e-07
2.20577e-07
2.17475e-07
2.14393e-07
2.1131e-07
2.07359e-07
2.02316e-07
1.96398e-07
1.89831e-07
1.8282e-07
1.75548e-07
1.68222e-07
1.61002e-07
1.53996e-07
1.47276e-07
1.40867e-07
1.34732e-07
1.28831e-07
1.23126e-07
1.17587e-07
1.12256e-07
1.07233e-07
1.02648e-07
9.87121e-08
9.58287e-08
9.42873e-08
9.36991e-08
9.38023e-08
6.36901e-08
6.41733e-08
6.58152e-08
6.91375e-08
7.38546e-08
7.94226e-08
8.54983e-08
9.18545e-08
9.83173e-08
1.0484e-07
1.11502e-07
1.18416e-07
1.25717e-07
1.33542e-07
1.41913e-07
1.50722e-07
1.59731e-07
1.68517e-07
1.76528e-07
1.83259e-07
1.88223e-07
1.91001e-07
1.91326e-07
1.89942e-07
1.88538e-07
1.87149e-07
1.85778e-07
1.84427e-07
1.83099e-07
1.81796e-07
1.8052e-07
1.79274e-07
1.78061e-07
1.76884e-07
1.75744e-07
1.74643e-07
1.73583e-07
1.72566e-07
1.71592e-07
1.70661e-07
1.69773e-07
1.68927e-07
1.68122e-07
1.67358e-07
1.66641e-07
1.65988e-07
1.65408e-07
1.64883e-07
1.64403e-07
1.63956e-07
1.63531e-07
1.63114e-07
1.62691e-07
1.62247e-07
1.61766e-07
1.61233e-07
1.60631e-07
1.59942e-07
1.5914e-07
1.58201e-07
1.57153e-07
1.56036e-07
1.54849e-07
1.53592e-07
1.52267e-07
1.50877e-07
1.49426e-07
1.4792e-07
1.46364e-07
1.44766e-07
1.43134e-07
1.41477e-07
1.39806e-07
1.38129e-07
1.36457e-07
1.34801e-07
1.33149e-07
1.31002e-07
1.28221e-07
1.24921e-07
1.2122e-07
1.1723e-07
1.13051e-07
1.088e-07
1.04575e-07
1.00442e-07
9.6445e-08
9.26056e-08
8.89025e-08
8.53149e-08
8.18215e-08
7.84057e-08
7.50961e-08
7.19607e-08
6.90859e-08
6.66115e-08
6.48034e-08
6.3855e-08
6.35301e-08
6.36394e-08
4.3354e-08
4.36905e-08
4.47921e-08
4.6999e-08
5.01323e-08
5.38567e-08
5.79651e-08
6.23094e-08
6.67551e-08
7.12366e-08
7.57653e-08
8.03691e-08
8.50893e-08
8.99712e-08
9.49971e-08
1.00094e-07
1.05137e-07
1.09925e-07
1.14197e-07
1.17727e-07
1.20292e-07
1.21692e-07
1.21799e-07
1.21012e-07
1.20211e-07
1.19417e-07
1.18634e-07
1.17861e-07
1.17102e-07
1.16356e-07
1.15627e-07
1.14916e-07
1.14224e-07
1.13553e-07
1.12904e-07
1.12279e-07
1.11677e-07
1.11101e-07
1.1055e-07
1.10023e-07
1.09522e-07
1.09044e-07
1.08589e-07
1.08156e-07
1.07743e-07
1.07352e-07
1.06993e-07
1.06667e-07
1.0636e-07
1.06065e-07
1.05775e-07
1.05483e-07
1.0518e-07
1.04858e-07
1.04507e-07
1.04117e-07
1.03672e-07
1.03162e-07
1.02596e-07
1.01992e-07
1.01349e-07
1.00666e-07
9.99417e-08
9.91775e-08
9.83743e-08
9.75338e-08
9.66585e-08
9.57516e-08
9.48169e-08
9.38589e-08
9.28827e-08
9.18937e-08
9.0898e-08
8.9902e-08
8.89121e-08
8.79348e-08
8.69625e-08
8.56797e-08
8.39949e-08
8.1975e-08
7.96915e-08
7.72127e-08
7.46009e-08
7.19324e-08
6.92699e-08
6.66577e-08
6.41272e-08
6.16928e-08
5.9342e-08
5.70625e-08
5.48415e-08
5.26693e-08
5.05656e-08
4.85748e-08
4.67514e-08
4.51822e-08
4.40318e-08
4.34221e-08
4.32215e-08
4.33067e-08
2.96773e-08
2.9853e-08
3.05393e-08
3.19623e-08
3.4004e-08
3.64446e-08
3.9151e-08
4.20286e-08
4.49879e-08
4.79811e-08
5.10073e-08
5.40737e-08
5.71937e-08
6.03807e-08
6.36077e-08
6.6816e-08
6.99236e-08
7.28108e-08
7.53347e-08
7.73792e-08
7.88303e-08
7.95869e-08
7.95819e-08
7.90574e-08
7.85249e-08
7.7998e-08
7.7478e-08
7.69661e-08
7.64637e-08
7.59718e-08
7.54918e-08
7.50247e-08
7.45715e-08
7.41332e-08
7.37107e-08
7.33046e-08
7.29153e-08
7.25433e-08
7.21887e-08
7.18512e-08
7.15306e-08
7.12261e-08
7.09368e-08
7.06616e-08
7.0399e-08
7.01473e-08
6.99052e-08
6.96745e-08
6.94584e-08
6.92505e-08
6.90435e-08
6.88307e-08
6.86057e-08
6.83609e-08
6.80907e-08
6.77922e-08
6.74699e-08
6.71269e-08
6.67611e-08
6.63709e-08
6.5955e-08
6.55125e-08
6.5043e-08
6.45466e-08
6.40238e-08
6.34759e-08
6.29046e-08
6.2312e-08
6.17009e-08
6.10745e-08
6.04366e-08
5.97913e-08
5.91429e-08
5.84962e-08
5.7856e-08
5.7227e-08
5.66046e-08
5.57808e-08
5.46956e-08
5.33936e-08
5.19238e-08
5.03334e-08
4.86658e-08
4.69734e-08
4.52986e-08
4.36705e-08
4.2109e-08
4.06221e-08
3.92014e-08
3.78389e-08
3.65269e-08
3.52602e-08
3.40499e-08
3.29182e-08
3.1889e-08
3.09978e-08
3.03137e-08
2.98915e-08
2.97013e-08
2.97002e-08
2.22047e-08
2.21173e-08
2.23338e-08
2.30057e-08
2.40899e-08
2.54646e-08
2.70473e-08
2.87743e-08
3.05834e-08
3.24381e-08
3.43324e-08
3.62657e-08
3.82413e-08
4.02619e-08
4.23037e-08
4.43226e-08
4.62615e-08
4.80422e-08
4.9576e-08
5.0794e-08
5.16307e-08
5.20278e-08
5.19466e-08
5.155e-08
5.11507e-08
5.0757e-08
5.03699e-08
4.99903e-08
4.9619e-08
4.92569e-08
4.89047e-08
4.85629e-08
4.82324e-08
4.79135e-08
4.76068e-08
4.73125e-08
4.7031e-08
4.67623e-08
4.65063e-08
4.62628e-08
4.60314e-08
4.58115e-08
4.56025e-08
4.54033e-08
4.52128e-08
4.50298e-08
4.48526e-08
4.46798e-08
4.45093e-08
4.43394e-08
4.41683e-08
4.39936e-08
4.38123e-08
4.36232e-08
4.34241e-08
4.32131e-08
4.29884e-08
4.27485e-08
4.2492e-08
4.22179e-08
4.19253e-08
4.16139e-08
4.12837e-08
4.09349e-08
4.05683e-08
4.01851e-08
3.97867e-08
3.93751e-08
3.89524e-08
3.85213e-08
3.80845e-08
3.7645e-08
3.7206e-08
3.67708e-08
3.63426e-08
3.59245e-08
3.55142e-08
3.49925e-08
3.43302e-08
3.356e-08
3.27173e-08
3.18358e-08
3.09459e-08
3.00785e-08
2.92559e-08
2.84902e-08
2.77866e-08
2.71438e-08
2.6555e-08
2.60153e-08
2.55213e-08
2.50726e-08
2.46705e-08
2.43131e-08
2.39903e-08
2.36795e-08
2.33418e-08
2.29596e-08
2.2635e-08
2.24204e-08
2.21799e-08
2.15938e-08
2.11131e-08
2.08322e-08
2.081e-08
2.10353e-08
2.1475e-08
2.2088e-08
2.28276e-08
2.36592e-08
2.45666e-08
2.55397e-08
2.65725e-08
2.76601e-08
2.87822e-08
2.99064e-08
3.09925e-08
3.19878e-08
3.28342e-08
3.34874e-08
3.39058e-08
3.40534e-08
3.39067e-08
3.35853e-08
3.32668e-08
3.29557e-08
3.26522e-08
3.23567e-08
3.20695e-08
3.1791e-08
3.15212e-08
3.12603e-08
3.10085e-08
3.07658e-08
3.05322e-08
3.03075e-08
3.00918e-08
2.98847e-08
2.9686e-08
2.94953e-08
2.93123e-08
2.91364e-08
2.8967e-08
2.88036e-08
2.86452e-08
2.84912e-08
2.83407e-08
2.81925e-08
2.80458e-08
2.78993e-08
2.77519e-08
2.76026e-08
2.745e-08
2.72932e-08
2.71312e-08
2.69629e-08
2.67877e-08
2.6605e-08
2.64145e-08
2.62159e-08
2.60095e-08
2.57957e-08
2.55751e-08
2.53487e-08
2.51177e-08
2.48835e-08
2.46474e-08
2.4411e-08
2.41758e-08
2.3943e-08
2.37139e-08
2.34891e-08
2.32691e-08
2.30539e-08
2.28431e-08
2.26361e-08
2.24316e-08
2.2225e-08
2.20286e-08
2.18615e-08
2.17417e-08
2.16838e-08
2.16975e-08
2.17822e-08
2.19297e-08
2.2127e-08
2.23582e-08
2.26094e-08
2.28776e-08
2.31639e-08
2.34743e-08
2.38188e-08
2.41917e-08
2.45648e-08
2.48873e-08
2.50597e-08
2.48944e-08
2.42834e-08
2.35394e-08
2.28388e-08
3.27866e-08
3.11312e-08
2.9399e-08
2.76356e-08
2.60391e-08
2.4731e-08
2.37279e-08
2.30036e-08
2.25162e-08
2.22216e-08
2.20843e-08
2.20776e-08
2.21813e-08
2.23797e-08
2.26527e-08
2.2975e-08
2.33171e-08
2.36438e-08
2.39168e-08
2.41059e-08
2.41838e-08
2.4128e-08
2.39243e-08
2.36762e-08
2.34406e-08
2.32179e-08
2.30079e-08
2.28104e-08
2.2625e-08
2.24512e-08
2.22879e-08
2.21344e-08
2.19892e-08
2.18511e-08
2.17187e-08
2.15903e-08
2.14647e-08
2.13405e-08
2.12165e-08
2.10918e-08
2.09655e-08
2.08373e-08
2.07069e-08
2.05745e-08
2.04401e-08
2.03045e-08
2.01682e-08
2.0032e-08
1.9897e-08
1.97642e-08
1.96348e-08
1.95099e-08
1.93911e-08
1.92796e-08
1.9177e-08
1.90852e-08
1.90058e-08
1.89409e-08
1.88925e-08
1.8863e-08
1.88544e-08
1.8869e-08
1.89089e-08
1.89756e-08
1.90703e-08
1.91936e-08
1.93449e-08
1.95226e-08
1.97237e-08
1.99438e-08
2.01768e-08
2.04147e-08
2.06485e-08
2.08673e-08
2.10596e-08
2.12131e-08
2.13255e-08
2.15931e-08
2.20888e-08
2.27932e-08
2.36835e-08
2.47353e-08
2.59229e-08
2.71973e-08
2.85068e-08
2.9806e-08
3.1053e-08
3.22215e-08
3.33237e-08
3.43813e-08
3.54279e-08
3.65067e-08
3.76167e-08
3.86974e-08
3.96321e-08
4.01704e-08
3.98145e-08
3.82784e-08
3.63809e-08
3.45046e-08
6.44819e-08
6.00856e-08
5.5478e-08
5.06545e-08
4.60591e-08
4.20103e-08
3.85729e-08
3.5711e-08
3.33583e-08
3.14312e-08
2.9848e-08
2.85446e-08
2.7471e-08
2.65887e-08
2.58694e-08
2.52879e-08
2.48196e-08
2.444e-08
2.41245e-08
2.38506e-08
2.35998e-08
2.33584e-08
2.31256e-08
2.32293e-08
2.34301e-08
2.37158e-08
2.40828e-08
2.45242e-08
2.50298e-08
2.5587e-08
2.6181e-08
2.67955e-08
2.74138e-08
2.80192e-08
2.85959e-08
2.91297e-08
2.96088e-08
3.00239e-08
3.03684e-08
3.06391e-08
3.08354e-08
3.096e-08
3.10176e-08
3.10157e-08
3.09632e-08
3.08708e-08
3.07499e-08
3.06127e-08
3.04717e-08
3.03392e-08
3.02273e-08
3.01476e-08