/*--------------------------------*- C++ -*----------------------------------*\
| =========                 |                                                 |
| \\      /  F ield         | OpenFOAM: The Open Source CFD Toolbox           |
|  \\    /   O peration     | Version:  v1912                                 |
|   \\  /    A nd           | Website:  www.openfoam.com                      |
|    \\/     M anipulation  |                                                 |
\*---------------------------------------------------------------------------*/
FoamFile
{
    version     2.0;
    format      ascii;
    class       volScalarField;
    location    "10000";
    object      omega;
}
// * * * * * * * * * * * * * * * * * * * * * * * * * * * * * * * * * * * * * //

dimensions      [0 0 -1 0 0 0 0];


internalField   nonuniform List<scalar> 
3000
(
202.31
202.037
207.046
227.913
257.53
274.721
277.005
267.182
248.309
227.944
210.913
196.708
184.842
174.621
163.819
151.836
139.155
126.318
114.434
104.795
97.5212
92.6744
90.3796
90.315
90.3347
90.3346
90.3385
90.3477
90.361
90.376
90.3902
90.4015
90.4086
90.4111
90.409
90.403
90.3936
90.3817
90.3691
90.3573
90.3476
90.3409
90.3369
90.3353
90.3368
90.3423
90.3476
90.3516
90.3548
90.3584
90.3625
90.3656
90.3668
90.3671
90.367
90.3631
90.3563
90.3475
90.3396
90.3358
90.3455
90.3794
90.4387
90.5247
90.6362
90.7697
90.92
91.08
91.2421
91.3986
91.5423
91.6664
91.7625
91.8167
91.8017
91.6768
91.4202
91.262
93.439
98.2398
105.499
115.124
127.02
139.815
152.433
164.316
175.009
185.049
196.869
210.895
227.887
248.395
267.309
277.649
275.974
260.176
232.4
211.76
205.536
203.59
52.0692
50.6744
57.6899
66.5053
54.9582
43.5961
42.0167
40.7206
38.4635
35.6773
33.0666
31.1781
29.3285
27.5177
25.6714
23.657
21.6203
19.6367
17.8596
16.4438
15.4359
14.8273
14.6912
15.2987
15.7682
16.5685
17.2961
17.8
18.0401
18.0263
17.8002
17.4162
16.9322
16.3993
15.8597
15.329
14.8146
14.5438
14.3268
14.1292
13.9495
13.7873
13.6445
13.5285
13.4669
13.4959
13.6603
13.8925
14.1193
14.298
14.3284
14.4325
14.7691
15.2714
15.7519
16.2024
17.6107
19.4663
21.0812
22.3993
23.2506
23.7543
24.015
24.0629
23.9336
23.6524
23.2367
22.6986
22.0464
21.2855
20.4154
19.4362
18.349
17.1757
16.0055
15.2106
15.1643
15.9779
16.9741
17.9079
18.9034
20.0105
21.2171
22.3508
23.3807
24.348
25.2668
26.2416
27.5068
29.1013
31.5698
34.2104
35.9812
36.2842
34.9937
32.6778
31.7216
39.0292
49.3634
54.5797
20.3128
21.3369
26.5172
34.8702
35.4553
21.7018
12.058
10.6792
10.3129
9.87271
9.31956
9.02113
8.54826
7.94778
7.36547
6.77947
6.2584
5.81847
5.4874
5.2965
5.26987
5.54328
6.26877
7.14625
7.48959
7.74243
7.82513
7.72672
7.46766
7.08535
6.62544
6.13673
5.66404
5.24384
4.90516
4.66728
4.56612
4.51075
4.48626
4.4884
4.51542
4.56699
4.64453
4.75345
4.9054
5.12423
5.39142
5.6532
5.92434
6.29977
6.72873
7.41996
8.48063
9.67902
10.6317
11.1476
11.462
11.7253
11.8346
11.7753
11.5391
11.1649
10.6927
10.146
9.54603
8.91035
8.25431
7.59242
6.93944
6.30908
5.71895
5.18829
4.739
4.40077
4.24275
4.22033
4.2807
4.49918
4.74253
4.95437
5.16614
5.39315
5.63471
5.86654
6.08679
6.30397
6.52014
6.73776
6.95851
7.18964
7.58295
7.971
8.10122
7.94781
7.56925
7.13152
7.02789
9.06135
14.8155
19.5239
8.47337
9.65598
13.4065
20.2581
24.5211
22.4468
9.79014
4.61237
3.91524
3.8196
3.74241
3.7426
3.664
3.51353
3.39061
3.30104
3.26852
3.29895
3.40207
3.59688
3.89648
4.22054
4.57942
4.82444
4.79311
4.66828
4.44899
4.15522
3.82035
3.48052
3.16797
2.90736
2.71211
2.5855
2.52393
2.52844
2.56469
2.62327
2.70292
2.80369
2.92664
3.07413
3.25037
3.46239
3.72058
4.03916
4.4252
4.88994
5.46174
6.15684
6.72378
6.9205
7.14802
7.38892
7.52137
7.49072
7.34576
7.12437
6.83152
6.47907
6.08224
5.6637
5.24463
4.83921
4.45794
4.10834
3.79568
3.52359
3.29394
3.10721
2.96225
2.85556
2.78222
2.74291
2.71607
2.69355
2.68754
2.72887
2.81506
2.92463
3.05077
3.19122
3.34267
3.49495
3.64127
3.775
3.90166
3.99726
3.98683
3.97518
4.08638
4.18263
4.21918
4.18917
4.09526
3.95761
3.84488
3.98738
5.64369
7.69211
4.30197
4.89578
7.07809
11.936
16.6986
18.1424
15.7541
6.07759
2.74093
2.23939
2.18816
2.22267
2.28917
2.32178
2.36594
2.42792
2.51765
2.63842
2.78509
2.94868
3.10561
3.24084
3.35371
3.33784
3.15729
2.93732
2.69742
2.45894
2.24347
2.06621
1.93507
1.85056
1.80784
1.79996
1.82048
1.86385
1.91992
1.98847
2.07041
2.16741
2.28186
2.41701
2.57733
2.76867
2.99825
3.27004
3.58237
3.91664
4.23435
4.49169
4.71006
4.88809
5.00088
5.04829
5.01374
4.89439
4.71141
4.49007
4.2502
4.00687
3.77217
3.55603
3.36475
3.20053
3.06305
2.95053
2.86038
2.78953
2.73479
2.6926
2.65877
2.62883
2.60095
2.57276
2.54219
2.51211
2.4932
2.50442
2.55741
2.6402
2.7417
2.85607
2.97925
3.10151
3.21696
3.31151
3.39581
3.39382
3.3748
3.42811
3.49377
3.538
3.54514
3.50916
3.42726
3.30906
3.19534
3.13947
3.43955
4.01917
2.96043
3.15356
4.16165
7.11375
11.0536
13.6652
13.957
12.5955
4.98438
2.3289
1.81946
1.63231
1.68166
1.74615
1.80967
1.87189
1.9426
2.02351
2.10577
2.18436
2.25461
2.3288
2.34681
2.2655
2.09061
1.91733
1.76096
1.63138
1.5346
1.47168
1.44008
1.43474
1.45005
1.48116
1.52472
1.57043
1.61631
1.66409
1.71594
1.77428
1.84155
1.92011
2.01217
2.11997
2.24469
2.38836
2.55155
2.73206
2.92547
3.12685
3.32826
3.47853
3.5702
3.60329
3.58095
3.51256
3.41437
3.30363
3.19344
3.09177
3.00285
2.92818
2.8672
2.81813
2.7788
2.74718
2.72145
2.70029
2.6827
2.66723
2.65154
2.63304
2.61156
2.58523
2.55417
2.52149
2.49656
2.49382
2.52663
2.5884
2.66761
2.75663
2.85187
2.94341
3.02495
3.08111
3.1018
3.09569
3.1326
3.17754
3.21455
3.227
3.20515
3.14613
3.0509
2.93137
2.82247
2.76061
2.79031
2.90755
2.46124
2.5051
2.89624
4.44832
7.17208
9.75364
11.1487
11.3025
10.3579
6.73846
2.89309
1.59815
1.26963
1.28588
1.32125
1.36392
1.41018
1.46274
1.51475
1.56623
1.62688
1.67171
1.67805
1.62718
1.53494
1.46109
1.4124
1.39033
1.39361
1.41891
1.46094
1.51349
1.57043
1.62667
1.67515
1.71318
1.74352
1.76907
1.79293
1.81828
1.84811
1.88506
1.93117
1.98775
2.05579
2.1367
2.23192
2.34256
2.4687
2.6081
2.74012
2.84662
2.92006
2.95891
2.96686
2.95193
2.92431
2.89293
2.8634
2.83809
2.81738
2.80057
2.78653
2.77424
2.76283
2.75192
2.7415
2.73234
2.72499
2.71857
2.71035
2.69759
2.67989
2.65565
2.62463
2.58932
2.55778
2.54269
2.55626
2.59577
2.65015
2.71097
2.7743
2.83225
2.86795
2.89025
2.89272
2.91631
2.94299
2.96546
2.97523
2.96074
2.91577
2.84047
2.73913
2.6247
2.52604
2.46904
2.45716
2.46914
2.18623
2.1909
2.33212
3.05561
4.68339
6.68864
8.31227
9.19992
9.32749
8.69408
8.31948
3.68798
2.24225
1.33016
1.09951
1.11063
1.13894
1.18099
1.22982
1.28368
1.33759
1.38488
1.41665
1.42726
1.42939
1.44842
1.48668
1.54312
1.61586
1.70084
1.79197
1.88157
1.96147
2.02631
2.06977
2.09932
2.11768
2.12782
2.13301
2.13669
2.14235
2.1532
2.17173
2.19961
2.23753
2.28537
2.3422
2.40664
2.47737
2.55232
2.62546
2.68963
2.7396
2.77356
2.79333
2.80358
2.80974
2.81582
2.82353
2.8328
2.84265
2.85151
2.85754
2.85906
2.85531
2.84751
2.83916
2.83417
2.8331
2.83152
2.82151
2.80674
2.78715
2.76195
2.72965
2.6909
2.65079
2.62415
2.61754
2.63122
2.65696
2.68682
2.71117
2.73111
2.73484
2.74126
2.74883
2.7578
2.76385
2.76278
2.74822
2.71203
2.65099
2.56755
2.46767
2.36355
2.2777
2.22795
2.21077
2.2035
1.97996
1.97692
2.03259
2.34563
3.2028
4.51423
5.88374
6.96364
7.58882
7.7349
7.71514
7.17059
6.716
4.08722
2.30564
1.74895
1.35553
1.24268
1.25578
1.30193
1.35874
1.41806
1.47243
1.52219
1.5762
1.63813
1.7114
1.79794
1.89966
2.01583
2.14048
2.25895
2.35524
2.42207
2.46616
2.49292
2.50589
2.50836
2.50337
2.49385
2.48276
2.47293
2.46702
2.46741
2.47635
2.49559
2.52508
2.56039
2.59492
2.63328
2.6723
2.70848
2.73907
2.7631
2.7819
2.7987
2.81763
2.83991
2.86602
2.89552
2.92737
2.95939
2.98794
3.00885
3.02038
3.02517
3.02952
3.03638
3.03724
3.01253
2.96718
2.92702
2.89349
2.86328
2.83141
2.79437
2.74962
2.71324
2.68565
2.66782
2.66084
2.65854
2.64896
2.63915
2.63051
2.62126
2.61057
2.5988
2.58336
2.56079
2.52626
2.47446
2.40446
2.31988
2.22694
2.13584
2.06339
2.02158
2.00528
1.99571
1.8039
1.80022
1.82803
1.96447
2.373
3.11389
4.05492
4.98397
5.72823
6.20575
6.48313
6.51966
6.43794
6.07048
5.55408
5.21801
3.4591
2.48879
2.13869
1.96525
1.84819
1.76324
1.73959
1.77442
1.83949
1.9124
1.99567
2.08891
2.19716
2.33287
2.48827
2.6376
2.74741
2.81655
2.8559
2.87411
2.87753
2.87089
2.85768
2.84019
2.82004
2.79839
2.777
2.75787
2.74318
2.73647
2.74469
2.76394
2.77684
2.78239
2.78784
2.79337
2.79814
2.80147
2.80361
2.80629
2.81233
2.8232
2.83983
2.86135
2.88779
2.91927
2.95433
2.98835
3.01425
3.02881
3.03866
3.05178
3.0589
3.03778
2.9989
2.95636
2.92095
2.89372
2.87018
2.84466
2.8122
2.77174
2.72916
2.68763
2.65012
2.61688
2.58513
2.55404
2.52274
2.49122
2.45967
2.42789
2.39354
2.35376
2.30511
2.24443
2.17218
2.09212
2.00965
1.93257
1.87295
1.83883
1.82495
1.81648
1.6448
1.64192
1.65956
1.72653
1.91258
2.28339
2.82992
3.46878
4.09105
4.61515
5.02219
5.29645
5.45824
5.4878
5.40495
5.28488
5.04968
4.74203
4.4667
4.18392
3.86692
3.40205
2.99733
2.79405
2.73813
2.72818
2.75622
2.82233
2.92808
3.06469
3.20224
3.27992
3.31533
3.32161
3.31051
3.28928
3.26245
3.23286
3.2024
3.17234
3.14377
3.11789
3.09623
3.08034
3.07042
3.06467
3.05929
3.05234
3.04672
3.03756
3.02336
3.00368
2.97919
2.95151
2.92269
2.89503
2.86946
2.84773
2.83103
2.81972
2.81369
2.81242
2.81483
2.81897
2.82211
2.82255
2.82042
2.81456
2.80491
2.80026
2.80668
2.81911
2.83134
2.83819
2.83654
2.82418
2.80249
2.76543
2.71549
2.66014
2.60357
2.54704
2.4909
2.43603
2.38299
2.33204
2.28325
2.23607
2.18836
2.13784
2.08219
2.01964
1.95118
1.87996
1.81006
1.74699
1.69917
1.67204
1.66091
1.65427
1.49645
1.49454
1.50734
1.54683
1.63572
1.80851
2.08518
2.45096
2.86159
3.26928
3.64455
3.96644
4.2267
4.41729
4.53635
4.59619
4.59528
4.54229
4.46693
4.38534
4.30562
4.2331
4.16153
4.09748
4.02284
3.94926
3.887
3.84625
3.82905
3.81302
3.77746
3.72843
3.67292
3.61598
3.56107
3.51035
3.46508
3.42593
3.39313
3.3667
3.34648
3.33227
3.32389
3.32136
3.32499
3.33466
3.34643
3.35499
3.35903
3.35754
3.34939
3.33369
3.31024
3.27971
3.24363
3.2041
3.16325
3.12301
3.0849
3.04998
3.0188
2.99151
2.96786
2.94729
2.92908
2.91233
2.89653
2.88306
2.87428
2.86893
2.86492
2.85944
2.8497
2.8337
2.8105
2.77985
2.74302
2.69255
2.62834
2.55589
2.48008
2.40415
2.32994
2.25907
2.19247
2.13031
2.07239
2.01795
1.96508
1.91201
1.85716
1.79951
1.73991
1.68065
1.62443
1.57489
1.53779
1.51681
1.50818
1.50331
1.35704
1.35583
1.36539
1.39198
1.44058
1.52249
1.65161
1.83288
2.0566
2.30557
2.5642
2.81825
3.05685
3.27094
3.45174
3.59489
3.69807
3.76189
3.79259
3.79862
3.7869
3.76252
3.72771
3.68572
3.64367
3.60069
3.55604
3.50861
3.455
3.39889
3.34346
3.2905
3.2412
3.19632
3.15637
3.12162
3.09222
3.0682
3.04949
3.03597
3.02746
3.02371
3.02445
3.02938
3.03806
3.04891
3.06087
3.07441
3.0891
3.10421
3.1188
3.13176
3.14199
3.1486
3.15105
3.14925
3.14351
3.13447
3.1229
3.1096
3.09529
3.08055
3.06573
3.05092
3.03591
3.02048
3.00442
2.9848
2.95875
2.92572
2.88575
2.83941
2.78776
2.73223
2.67439
2.61568
2.55742
2.48847
2.40886
2.32462
2.24027
2.15866
2.08121
2.00912
1.94288
1.8823
1.8269
1.77581
1.72745
1.68046
1.63374
1.58662
1.53962
1.49417
1.45191
1.41512
1.38767
1.37207
1.36549
1.36195
1.22847
1.22756
1.23433
1.25267
1.28261
1.32553
1.3863
1.46947
1.57538
1.70103
1.84249
1.99478
2.15271
2.311
2.46272
2.60114
2.72072
2.81712
2.88834
2.93534
2.95967
2.96261
2.94467
2.91148
2.8767
2.84036
2.80164
2.76043
2.71935
2.67933
2.64104
2.60498
2.57152
2.54089
2.51325
2.48863
2.46704
2.44841
2.43265
2.41961
2.40916
2.40113
2.39536
2.39169
2.38989
2.38971
2.39203
2.39674
2.40365
2.41249
2.4229
2.43443
2.44654
2.45869
2.47032
2.48094
2.49016
2.49767
2.50326
2.50679
2.50815
2.5072
2.50375
2.49751
2.48812
2.47482
2.45518
2.43028
2.40095
2.36755
2.33066
2.29106
2.24967
2.20749
2.16549
2.12456
2.08531
2.0389
1.98455
1.92603
1.86641
1.80781
1.7515
1.69861
1.64969
1.60476
1.56358
1.5256
1.48984
1.45545
1.42177
1.38835
1.35551
1.32404
1.29494
1.26962
1.25062
1.23964
1.23468
1.23204
1.11557
1.11485
1.11917
1.131
1.14962
1.1739
1.20451
1.24289
1.28987
1.34572
1.41054
1.48383
1.56462
1.65149
1.74148
1.83068
1.91492
1.98983
2.05165
2.09836
2.12857
2.14132
2.13608
2.11776
2.09785
2.07694
2.05554
2.0343
2.01342
1.99312
1.97359
1.955
1.93749
1.92115
1.90605
1.89221
1.87964
1.86833
1.85823
1.8493
1.84148
1.83472
1.82896
1.82415
1.82023
1.81761
1.81621
1.81595
1.81671
1.81837
1.82077
1.82371
1.82701
1.83042
1.83372
1.83666
1.83901
1.84053
1.84099
1.84016
1.83783
1.83376
1.82772
1.81943
1.80852
1.79433
1.77831
1.76081
1.74205
1.72228
1.70184
1.68107
1.66036
1.64009
1.62062
1.6023
1.58531
1.56509
1.54071
1.51353
1.4848
1.4555
1.42635
1.39808
1.37119
1.34587
1.32213
1.29981
1.27845
1.25766
1.2371
1.21657
1.19625
1.17664
1.15835
1.14231
1.13019
1.12315
1.11977
1.11799
1.01806
1.01806
1.0216
1.03025
1.04311
1.0588
1.07689
1.0975
1.12076
1.14696
1.17658
1.21
1.24741
1.28882
1.33341
1.37962
1.42542
1.46823
1.50537
1.53489
1.55516
1.56488
1.56329
1.5533
1.54286
1.5324
1.52199
1.51169
1.50159
1.49175
1.48226
1.47317
1.46453
1.45638
1.44874
1.44163
1.43505
1.42899
1.42344
1.41837
1.41376
1.40959
1.40583
1.4025
1.39967
1.39743
1.39572
1.3945
1.39367
1.39318
1.39292
1.3928
1.39272
1.39256
1.39222
1.39157
1.3905
1.38889
1.38664
1.38362
1.37973
1.37487
1.36897
1.36185
1.35352
1.34465
1.33535
1.32569
1.3158
1.30582
1.29588
1.28614
1.27675
1.26786
1.25962
1.25218
1.24558
1.23775
1.22811
1.21712
1.2052
1.19272
1.17996
1.16724
1.15481
1.1428
1.13123
1.12007
1.1091
1.09812
1.087
1.07562
1.06413
1.05285
1.0422
1.03278
1.02569
1.02169
1.01991
1.01924
0.9425
0.942728
0.94568
0.952497
0.962325
0.9739
0.986611
1.00019
1.01447
1.02951
1.04557
1.06294
1.08188
1.10258
1.12487
1.14817
1.17161
1.19392
1.21365
1.22959
1.24067
1.24602
1.24507
1.23957
1.23397
1.22838
1.22285
1.2174
1.21207
1.2069
1.20191
1.19713
1.19259
1.1883
1.18427
1.18052
1.17703
1.17381
1.17084
1.16811
1.16561
1.16332
1.16123
1.15933
1.15767
1.15626
1.15507
1.15405
1.15316
1.15237
1.15161
1.15084
1.15
1.14904
1.1479
1.14653
1.14488
1.1429
1.14053
1.13774
1.1345
1.13077
1.12649
1.12177
1.11683
1.11171
1.10646
1.10114
1.09582
1.09056
1.08545
1.08055
1.07594
1.07171
1.06793
1.06465
1.06192
1.05864
1.05448
1.04961
1.04421
1.03842
1.03232
1.02609
1.01983
1.01362
1.00748
1.00141
0.995309
0.989079
0.982662
0.976033
0.969322
0.962773
0.956655
0.951294
0.947213
0.944786
0.94356
0.943201
0.89542
0.894657
0.895746
0.899607
0.905806
0.913469
0.922062
0.931243
0.940738
0.950449
0.960461
0.970888
0.98186
0.993496
1.00573
1.01831
1.03083
1.04269
1.05314
1.06157
1.06739
1.07011
1.06943
1.06632
1.06318
1.06007
1.05701
1.05402
1.05111
1.04831
1.04562
1.04307
1.04066
1.03841
1.03631
1.03438
1.0326
1.03099
1.02952
1.02818
1.02698
1.02589
1.02491
1.02401
1.02321
1.02252
1.0219
1.02134
1.02079
1.02025
1.01966
1.01902
1.01829
1.01744
1.01645
1.01529
1.01395
1.01239
1.0106
1.00858
1.00628
1.0037
1.00093
0.998022
0.995007
0.991912
0.988772
0.985625
0.982514
0.979483
0.976579
0.973851
0.971345
0.969109
0.967186
0.965616
0.964409
0.962796
0.960518
0.957671
0.954352
0.950651
0.946646
0.94247
0.938246
0.934061
0.929986
0.926055
0.922243
0.918548
0.914997
0.911662
0.908694
0.906251
0.90439
0.902977
0.901616
0.899949
0.898088
0.896825
0.891147
0.887829
0.885059
0.88353
0.883606
0.885159
0.887943
0.891685
0.896098
0.900993
0.906306
0.912013
0.918117
0.924632
0.931472
0.938466
0.945374
0.951851
0.957492
0.961963
0.964948
0.966172
0.965459
0.963388
0.961319
0.959288
0.957307
0.955384
0.95353
0.951753
0.950064
0.948469
0.946974
0.945584
0.9443
0.943123
0.942051
0.941081
0.940207
0.939422
0.938718
0.938086
0.937515
0.936995
0.936519
0.936091
0.935705
0.935333
0.934957
0.934558
0.934118
0.933618
0.933042
0.932371
0.93159
0.930685
0.929642
0.928448
0.92708
0.925518
0.923791
0.921942
0.919984
0.917933
0.91581
0.913636
0.911437
0.909242
0.907082
0.904989
0.902997
0.901141
0.899454
0.897968
0.896713
0.895715
0.894977
0.893857
0.892144
0.88995
0.88741
0.88467
0.881888
0.879263
0.876968
0.875135
0.873858
0.873198
0.873208
0.873978
0.875648
0.878419
0.882438
0.887644
0.893638
0.89938
0.902706
0.901847
0.898209
0.894638
0.977964
0.969229
0.958317
0.94553
0.932972
0.922121
0.913386
0.906712
0.901855
0.898511
0.896419
0.895378
0.895242
0.895896
0.897204
0.898991
0.901054
0.90314
0.904969
0.906307
0.906938
0.906676
0.905389
0.903463
0.901582
0.899752
0.897977
0.896259
0.894603
0.893011
0.891485
0.890028
0.888641
0.887323
0.886075
0.884894
0.883777
0.88272
0.88172
0.88077
0.879865
0.878999
0.878164
0.877352
0.876556
0.875773
0.875008
0.874256
0.8735
0.872727
0.871922
0.871074
0.870169
0.869194
0.868136
0.866983
0.865717
0.864329
0.862829
0.861244
0.85958
0.857845
0.856051
0.85421
0.852339
0.850455
0.848579
0.84673
0.844932
0.843207
0.841578
0.840067
0.838694
0.837479
0.836435
0.835574
0.834904
0.834175
0.833391
0.832745
0.832474
0.832848
0.834147
0.83661
0.840397
0.845601
0.852246
0.860336
0.870003
0.881443
0.894946
0.91088
0.929284
0.949594
0.970545
0.989475
1.00114
1.00132
0.994125
0.985827
1.25008
1.23131
1.20486
1.17016
1.13269
1.09715
1.06536
1.03778
1.01433
0.994537
0.977799
0.963629
0.95163
0.941496
0.933012
0.92598
0.92019
0.915421
0.911439
0.908007
0.904921
0.902009
0.899144
0.896647
0.894276
0.891978
0.889749
0.887583
0.885473
0.883414
0.8814
0.879425
0.877482
0.875566
0.87367
0.871789
0.869918
0.868049
0.866181
0.864307
0.862424
0.860531
0.858625
0.856704
0.854768
0.852817
0.850852
0.848879
0.846902
0.844923
0.842941
0.840955
0.838961
0.836961
0.834955
0.832945
0.830942
0.828957
0.826998
0.825074
0.823195
0.821373
0.819619
0.817946
0.816367
0.814896
0.813543
0.812321
0.811239
0.810301
0.809512
0.808867
0.80836
0.807977
0.807699
0.807498
0.807405
0.808551
0.811586
0.816765
0.824387
0.83477
0.848213
0.864748
0.884257
0.906547
0.931342
0.958435
0.988047
1.02051
1.05631
1.09605
1.13949
1.18519
1.23052
1.27036
1.29477
1.29591
1.28258
1.26582
1.85189
1.81676
1.76436
1.69233
1.61169
1.53276
1.45989
1.3946
1.33725
1.28718
1.24327
1.20458
1.17031
1.13985
1.1129
1.08926
1.06874
1.05118
1.0364
1.02414
1.01417
1.00632
1.00049
0.997046
0.993884
0.990843
0.987899
0.985029
0.982212
0.979424
0.976646
0.973856
0.971035
0.968166
0.965231
0.962218
0.959114
0.95591
0.9526
0.949183
0.945658
0.94203
0.938308
0.934502
0.930628
0.926705
0.922752
0.918794
0.914858
0.910971
0.907162
0.903462
0.899904
0.896517
0.893332
0.89038
0.887692
0.885299
0.883229
0.881511
0.880172
0.879234
0.878721
0.878648
0.879029
0.879868
0.881165
0.882905
0.885067
0.887611
0.890487
0.893626
0.896943
0.900336
0.903688
0.90687
0.909945
0.917333
0.931033
0.951122
0.977641
1.0106
1.04993
1.09493
1.14469
1.19834
1.25502
1.31414
1.37608
1.4414
1.5109
1.58551
1.66462
1.7456
1.82404
1.89165
1.93232
1.93335
1.91045
1.88023
2.97134
2.91274
2.82233
2.6946
2.5485
2.40273
2.26566
2.14063
2.02891
1.92973
1.84127
1.76194
1.6904
1.62561
1.56721
1.51511
1.46923
1.4296
1.39624
1.36889
1.34734
1.33152
1.32137
1.31757
1.31431
1.31126
1.30837
1.30558
1.30284
1.3001
1.29731
1.29442
1.2914
1.2882
1.2848
1.28116
1.27725
1.27308
1.26862
1.26389
1.25888
1.25362
1.24814
1.24247
1.23667
1.23079
1.2249
1.21906
1.21335
1.20786
1.20268
1.1979
1.1936
1.18989
1.18685
1.18458
1.18316
1.18267
1.18319
1.1848
1.18755
1.1915
1.19668
1.20311
1.21079
1.21971
1.22981
1.24102
1.25323
1.26629
1.28002
1.29419
1.30854
1.32277
1.33653
1.34947
1.36165
1.38315
1.418
1.46555
1.52496
1.59531
1.67561
1.76373
1.85748
1.95503
2.05471
2.15556
2.2583
2.36393
2.4738
2.58937
2.70973
2.83103
2.94696
3.0457
3.10392
3.10287
3.0666
3.01742
4.8341
4.74711
4.60809
4.40668
4.17202
3.93424
3.70744
3.4978
3.30815
3.13782
2.98416
2.84479
2.71768
2.60126
2.49521
2.3997
2.31499
2.24155
2.17987
2.1298
2.09133
2.06456
2.04968
2.04803
2.04736
2.04708
2.04709
2.04726
2.04751
2.04773
2.04785
2.04776
2.04741
2.04671
2.04561
2.04405
2.04199
2.03942
2.03632
2.0327
2.02859
2.02404
2.01911
2.0139
2.00849
2.00303
1.99764
1.9925
1.98777
1.98364
1.9803
1.97795
1.97679
1.97703
1.97885
1.98245
1.98801
1.99569
2.00563
2.01797
2.03279
2.05017
2.07013
2.09266
2.11771
2.14516
2.17485
2.20654
2.23996
2.27472
2.31041
2.34653
2.38249
2.41765
2.45131
2.48269
2.51175
2.55568
2.62077
2.70505
2.8062
2.92187
3.04978
3.18613
3.32738
3.47075
3.614
3.75602
3.89816
4.04214
4.19013
4.34446
4.5042
4.66455
4.81762
4.94817
5.02513
5.02223
4.97145
4.90053
7.7209
7.60861
7.41665
7.12774
6.78356
6.42919
6.08671
5.76651
5.47391
5.20875
4.96748
4.74686
4.54405
4.35688
4.18521
4.02975
3.89138
3.77141
3.67115
3.5908
3.53074
3.49153
3.474
3.48041
3.48855
3.49745
3.5069
3.51671
3.5267
3.53673
3.54663
3.55626
3.56549
3.57421
3.5823
3.58968
3.59628
3.60206
3.60701
3.61114
3.6145
3.61717
3.61927
3.62094
3.62239
3.62382
3.62549
3.62768
3.6307
3.63486
3.64052
3.64801
3.65767
3.66984
3.68483
3.70296
3.72447
3.74961
3.77856
3.81146
3.84839
3.88936
3.93433
3.98316
4.03566
4.09152
4.15037
4.21174
4.27509
4.33976
4.40504
4.47009
4.53401
4.59578
4.65426
4.70817
4.75708
4.8246
4.91886
5.03643
5.17352
5.32649
5.49209
5.66546
5.84226
6.01943
6.19462
6.36697
6.53865
6.7122
6.89072
7.07754
7.27211
7.46925
7.66021
7.8272
7.93189
7.94041
7.88576
7.80098
11.9058
11.7788
11.5394
11.1616
10.6997
10.216
9.74219
9.29428
8.88123
8.50403
8.15848
7.84055
7.54662
7.27392
7.02275
6.7947
6.5917
6.4164
6.27141
6.15764
6.07618
6.02842
6.02537
6.05158
6.0809
6.11174
6.14371
6.17646
6.20968
6.24309
6.2764
6.30938
6.34178
6.37339
6.40404
6.43356
6.46183
6.48876
6.51433
6.53852
6.56139
6.58304
6.60363
6.62335
6.64246
6.66126
6.68011
6.69939
6.71952
6.74094
6.76411
6.78949
6.81751
6.8486
6.88315
6.92151
6.96396
7.01073
7.06198
7.11778
7.17812
7.2429
7.31195
7.38496
7.46158
7.54134
7.62368
7.70796
7.79347
7.8794
7.9649
8.04901
8.1307
8.20881
8.28198
8.34843
8.40701
8.48404
8.58865
8.71689
8.86454
9.02793
9.20411
9.38859
9.57752
9.76835
9.95917
10.1494
10.3416
10.5385
10.7437
10.9611
11.1906
11.4276
11.6638
11.8811
12.0363
12.1004
12.0662
11.9856
17.245
17.1236
16.8778
16.4679
15.9481
15.3891
14.8298
14.2921
13.7899
13.3271
12.9001
12.5048
12.1376
11.7956
11.4798
11.1935
10.9402
10.7247
10.5519
10.4241
10.3434
10.3136
10.3533
10.4308
10.5116
10.5929
10.6741
10.7547
10.8343
10.9126
10.9891
11.0637
11.1361
11.2061
11.2736
11.3385
11.4006
11.46
11.5165
11.5703
11.6214
11.6699
11.716
11.76
11.8021
11.8425
11.8816
11.9199
11.9576
11.9953
12.0333
12.072
12.1119
12.1533
12.1966
12.2419
12.2896
12.3399
12.3927
12.4481
12.5061
12.5666
12.6292
12.6938
12.76
12.8273
12.8953
12.9635
13.0313
13.098
13.163
13.2257
13.2853
13.3408
13.3912
13.4347
13.4689
13.5167
13.5875
13.68
13.7921
13.9224
14.0701
14.2325
14.4072
14.5922
14.7856
14.9862
15.1955
15.4153
15.6485
15.8988
16.1674
16.4511
16.743
17.0266
17.2553
17.3929
17.3868
17.3167
23.8073
23.8187
23.7287
23.4618
23.0457
22.5499
22.023
21.4973
20.9964
20.5308
20.0998
19.7007
19.3298
18.9841
18.6659
18.3803
18.1335
17.9335
17.7881
17.701
17.6752
17.722
17.8295
17.9675
18.0984
18.2201
18.3334
18.4389
18.5372
18.6287
18.714
18.7934
18.8672
18.9357
18.9991
19.0577
19.1118
19.1614
19.2068
19.2482
19.2858
19.3198
19.3503
19.3775
19.4017
19.423
19.4416
19.4578
19.4717
19.4836
19.4936
19.502
19.5089
19.5146
19.5191
19.5225
19.5251
19.5267
19.5275
19.5273
19.5262
19.5239
19.5204
19.5154
19.5087
19.5
19.4891
19.4755
19.4591
19.4395
19.4163
19.3894
19.3584
19.3229
19.2824
19.2356
19.1786
19.1333
19.114
19.1246
19.1663
19.2398
19.3457
19.4815
19.644
19.8302
20.0371
20.2625
20.508
20.777
21.0748
21.4094
21.7852
22.1987
22.6403
23.0857
23.4532
23.677
23.7601
23.7771
42.0169
42.2769
42.292
41.8815
41.1097
40.1613
39.1686
38.204
37.3087
36.4961
35.758
35.0821
34.4565
33.8707
33.3241
32.822
32.3708
31.9791
31.6538
31.3922
31.191
31.0588
30.9886
30.9909
30.9827
30.9562
30.9148
30.8618
30.7999
30.7307
30.6557
30.5761
30.4931
30.4074
30.32
30.2315
30.1427
30.054
29.966
29.8793
29.7942
29.7111
29.6304
29.5523
29.4771
29.4048
29.3356
29.2695
29.2065
29.1463
29.0889
29.0338
28.9809
28.9294
28.879
28.829
28.7786
28.7271
28.6738
28.6178
28.5582
28.4942
28.425
28.3497
28.2676
28.178
28.0803
27.974
27.8587
27.7341
27.6002
27.4569
27.3044
27.1429
26.972
26.7927
26.58
26.4314
26.3965
26.4637
26.6183
26.8524
27.1671
27.5539
28.0059
28.5215
29.1005
29.7462
30.4748
31.3079
32.2634
33.3662
34.6198
35.9948
37.4451
38.8932
40.0523
40.8698
41.3861
41.7061
201.187
200.729
198.432
193.207
185.4
176.386
167.226
158.429
150.247
142.771
135.954
129.7
123.927
118.567
113.594
109.025
104.894
101.24
98.1128
95.5411
93.5407
92.1318
91.3334
91.0669
91.0303
91.0026
90.9768
90.9532
90.9315
90.9117
90.8937
90.8773
90.8624
90.849
90.8369
90.826
90.8163
90.8078
90.8002
90.7937
90.788
90.7832
90.7791
90.7756
90.7728
90.7704
90.7684
90.7667
90.7652
90.7637
90.762
90.7602
90.7581
90.7555
90.7523
90.7484
90.7439
90.7385
90.7322
90.7251
90.7171
90.7082
90.6986
90.6882
90.6771
90.6655
90.6536
90.6414
90.6291
90.6169
90.605
90.5936
90.5828
90.5729
90.564
90.5563
90.5601
90.8006
91.5787
92.969
94.951
97.5076
100.626
104.277
108.413
112.993
117.983
123.366
129.171
135.462
142.325
149.854
158.094
166.952
176.173
185.238
193.083
198.34
200.667
201.165
)
;

boundaryField
{
    inlet
    {
        type            cyclic;
    }
    outlet
    {
        type            cyclic;
    }
    topWall
    {
        blended         1;
        beta1           0.075;
        type            omegaWallFunction;
        value           nonuniform List<scalar> 
100
(
201.187
200.729
198.432
193.207
185.4
176.386
167.226
158.429
150.247
142.771
135.954
129.7
123.927
118.567
113.594
109.025
104.894
101.24
98.1128
95.5411
93.5407
92.1318
91.3334
91.0669
91.0303
91.0026
90.9768
90.9532
90.9315
90.9117
90.8937
90.8773
90.8624
90.849
90.8369
90.826
90.8163
90.8078
90.8002
90.7937
90.788
90.7832
90.7791
90.7756
90.7728
90.7704
90.7684
90.7667
90.7652
90.7637
90.762
90.7602
90.7581
90.7555
90.7523
90.7484
90.7439
90.7385
90.7322
90.7251
90.7171
90.7082
90.6986
90.6882
90.6771
90.6655
90.6536
90.6414
90.6291
90.6169
90.605
90.5936
90.5828
90.5729
90.564
90.5563
90.5601
90.8006
91.5787
92.969
94.951
97.5076
100.626
104.277
108.413
112.993
117.983
123.366
129.171
135.462
142.325
149.854
158.094
166.952
176.173
185.238
193.083
198.34
200.667
201.165
)
;
    }
    bottomWall
    {
        blended         1;
        beta1           0.075;
        type            omegaWallFunction;
        value           nonuniform List<scalar> 
100
(
202.31
202.037
207.046
227.913
257.53
274.721
277.005
267.182
248.309
227.944
210.913
196.708
184.842
174.621
163.819
151.836
139.155
126.318
114.434
104.795
97.5212
92.6744
90.3796
90.315
90.3347
90.3346
90.3385
90.3477
90.361
90.376
90.3902
90.4015
90.4086
90.4111
90.409
90.403
90.3936
90.3817
90.3691
90.3573
90.3476
90.3409
90.3369
90.3353
90.3368
90.3423
90.3476
90.3516
90.3548
90.3584
90.3625
90.3656
90.3668
90.3671
90.367
90.3631
90.3563
90.3475
90.3396
90.3358
90.3455
90.3794
90.4387
90.5247
90.6362
90.7697
90.92
91.08
91.2421
91.3986
91.5423
91.6664
91.7625
91.8167
91.8017
91.6768
91.4202
91.262
93.439
98.2398
105.499
115.124
127.02
139.815
152.433
164.316
175.009
185.049
196.869
210.895
227.887
248.395
267.309
277.649
275.974
260.176
232.4
211.76
205.536
203.59
)
;
    }
    defaultFaces
    {
        type            empty;
    }
}


// ************************************************************************* //
