/*--------------------------------*- C++ -*----------------------------------*\
| =========                 |                                                 |
| \\      /  F ield         | OpenFOAM: The Open Source CFD Toolbox           |
|  \\    /   O peration     | Version:  v1912                                 |
|   \\  /    A nd           | Website:  www.openfoam.com                      |
|    \\/     M anipulation  |                                                 |
\*---------------------------------------------------------------------------*/
FoamFile
{
    version     2.0;
    format      ascii;
    class       volScalarField;
    location    "10000";
    object      p;
}
// * * * * * * * * * * * * * * * * * * * * * * * * * * * * * * * * * * * * * //

dimensions      [0 2 -2 0 0 0 0];


internalField   nonuniform List<scalar> 
3000
(
-6.74505e-06
0.000366682
-0.00310832
0.00907443
0.0343471
0.0524593
0.0611848
0.0659564
0.0687569
0.070842
0.0722702
0.0732857
0.0746196
0.0762501
0.0780596
0.079872
0.0814086
0.0824486
0.0829
0.0828888
0.0826624
0.0825294
0.0826612
0.0829555
0.0832791
0.0835499
0.0837581
0.0838929
0.0839454
0.0839054
0.0837497
0.0834415
0.0829499
0.0822686
0.0814198
0.0804486
0.0794181
0.0784076
0.0775114
0.0768315
0.0764621
0.0764677
0.0768607
0.0775895
0.078555
0.0796312
0.0806809
0.0815913
0.0823096
0.0828361
0.083176
0.083325
0.0833216
0.0832124
0.0829488
0.082457
0.0816946
0.080627
0.0792535
0.0776098
0.0757604
0.0737836
0.07176
0.0697692
0.0678899
0.0662048
0.0648065
0.0638003
0.0633045
0.0634525
0.064401
0.0663283
0.0694257
0.074034
0.0812528
0.0932546
0.109402
0.119726
0.126288
0.132085
0.138018
0.144689
0.152701
0.16313
0.176288
0.191664
0.208221
0.224342
0.23843
0.249622
0.257528
0.261314
0.258756
0.245777
0.215457
0.157833
0.0654337
-0.0239949
-0.0493583
-0.0249848
0.00099913
0.00195463
-0.00131279
0.00919103
0.0328001
0.0509408
0.0602782
0.0654052
0.0684089
0.0706195
0.0721447
0.0731638
0.0744444
0.0760307
0.0778212
0.079661
0.081269
0.0823984
0.0829167
0.0829308
0.0826968
0.0825381
0.0826542
0.0829507
0.0832834
0.0835518
0.0837579
0.0838935
0.0839493
0.083914
0.0837635
0.0834603
0.0829726
0.0822932
0.0814434
0.0804681
0.0794314
0.0784138
0.077511
0.0768258
0.0764525
0.0764551
0.0768448
0.0775693
0.0785317
0.0796074
0.0806581
0.0815699
0.0822892
0.0828168
0.0831598
0.0833161
0.0833213
0.0832208
0.0829685
0.0824889
0.0817403
0.0806861
0.0793231
0.0776862
0.0758396
0.0738616
0.0718333
0.0698339
0.0679422
0.0662407
0.0648223
0.0637927
0.0632698
0.0633862
0.0642961
0.0661722
0.0691943
0.0736768
0.080608
0.0918238
0.106743
0.117328
0.124401
0.130624
0.137044
0.144347
0.153197
0.164507
0.178391
0.194187
0.210768
0.226553
0.240098
0.250686
0.258026
0.26101
0.257079
0.242035
0.209126
0.150086
0.0632597
-0.0151713
-0.0396644
-0.0210355
0.00346423
0.00593238
0.00455966
0.0125012
0.032599
0.0495238
0.0593623
0.0648105
0.0679956
0.070359
0.0720319
0.0730453
0.0742465
0.0757619
0.077503
0.0793541
0.0810359
0.082278
0.0829024
0.0829657
0.082719
0.0825353
0.0826392
0.0829431
0.0832918
0.0835603
0.0837685
0.0839084
0.0839701
0.0839403
0.0837932
0.0834912
0.0830025
0.0823189
0.0814613
0.0804743
0.0794227
0.0783892
0.0774712
0.0767731
0.0763893
0.0763823
0.0767634
0.0774817
0.0784434
0.0795257
0.0805893
0.0815189
0.0822576
0.0828046
0.083173
0.0833649
0.0833918
0.0832858
0.0830303
0.0825571
0.0818128
0.080762
0.0794003
0.0777613
0.0759082
0.0739191
0.0718745
0.0698533
0.0679337
0.0661988
0.0647424
0.0636715
0.0631036
0.0631683
0.0640114
0.0657897
0.0686668
0.0729297
0.0793643
0.0891947
0.101737
0.111988
0.11963
0.126571
0.133895
0.142302
0.152459
0.16501
0.179864
0.19622
0.21289
0.228342
0.241355
0.251478
0.258198
0.260045
0.25447
0.237292
0.202462
0.144299
0.0662183
-0.000178983
-0.0248938
-0.0140333
0.00674216
0.0107726
0.0119097
0.0184148
0.0337839
0.0490374
0.058176
0.0642018
0.0675273
0.0700452
0.0719563
0.0729486
0.0740179
0.0754247
0.0770713
0.0789028
0.080646
0.0820164
0.0827929
0.0829641
0.0827493
0.0825546
0.0826479
0.0829471
0.0833107
0.0835834
0.0837994
0.0839501
0.084023
0.0839999
0.0838509
0.0835378
0.0830308
0.0823242
0.0814403
0.0804246
0.079343
0.0782791
0.0773319
0.0766064
0.0761971
0.0761681
0.0765333
0.0772474
0.078221
0.0793353
0.080455
0.0814628
0.0822884
0.0829098
0.0833278
0.0835434
0.0835902
0.0835042
0.0832527
0.0827687
0.0819981
0.0809093
0.0795031
0.0778167
0.075916
0.07388
0.0717893
0.0697213
0.0677523
0.0659648
0.0644541
0.0633282
0.0627052
0.06271
0.0634743
0.0651397
0.0678762
0.071979
0.0780093
0.086572
0.0969764
0.106693
0.114812
0.122553
0.130932
0.140605
0.152166
0.165968
0.181699
0.198408
0.214911
0.229845
0.242366
0.251953
0.257733
0.258145
0.250633
0.231143
0.194692
0.138431
0.0693646
0.0134574
-0.0111382
-0.00650738
0.0115744
0.016209
0.0189621
0.0246872
0.03615
0.0489408
0.0575778
0.0632911
0.0670192
0.0695851
0.0719235
0.0729111
0.0737606
0.0750006
0.0764757
0.0782278
0.0799941
0.0814892
0.0824656
0.0828431
0.0827786
0.0826401
0.0827031
0.0829627
0.0833549
0.0836586
0.0839085
0.0840891
0.0841792
0.0841526
0.0839771
0.0836197
0.083059
0.0822964
0.0813569
0.0802863
0.0791487
0.0780273
0.0770218
0.0762402
0.0757817
0.0757159
0.0760642
0.0767899
0.0778091
0.0790075
0.0802557
0.0814282
0.0824236
0.0831809
0.0836879
0.0839757
0.0840843
0.0840213
0.0837465
0.0832021
0.0823421
0.0811467
0.07963
0.0778394
0.0758463
0.0737316
0.0715743
0.0694475
0.0674222
0.065577
0.0640046
0.0628135
0.0621193
0.0620343
0.0626702
0.0641633
0.0667117
0.0705873
0.0761157
0.0835022
0.0922703
0.101433
0.109941
0.11854
0.128118
0.139202
0.15222
0.167226
0.183661
0.200457
0.216608
0.231101
0.243089
0.251815
0.256279
0.254901
0.245112
0.223238
0.185776
0.13272
0.0730397
0.0264354
0.00275998
0.0024143
0.0175461
0.0218964
0.0252696
0.0302729
0.0389899
0.0495205
0.0572456
0.0627813
0.0666713
0.0687043
0.0718255
0.0730128
0.073509
0.0745076
0.0756752
0.0772377
0.0789457
0.0805161
0.0817153
0.0824096
0.082656
0.0826936
0.0827646
0.083023
0.083492
0.0838784
0.084197
0.0844194
0.0845143
0.0844511
0.0842033
0.0837511
0.0830875
0.0822229
0.0811848
0.0800159
0.0787772
0.0775514
0.0764439
0.0755726
0.0750481
0.0749502
0.0753069
0.0760857
0.0772049
0.0785537
0.0800042
0.0814142
0.082645
0.0835999
0.0842704
0.0846972
0.0848951
0.0848453
0.0845107
0.0838487
0.0828321
0.0814626
0.079775
0.0778322
0.0757132
0.0735
0.0712676
0.069081
0.0670017
0.0650989
0.0634618
0.0621999
0.0614247
0.0612329
0.0617271
0.0630673
0.0654782
0.0691052
0.0740731
0.0804324
0.0879737
0.0965972
0.105418
0.114909
0.125785
0.138325
0.152696
0.16867
0.185495
0.202153
0.217994
0.232031
0.243127
0.25059
0.253352
0.249815
0.237527
0.213517
0.176053
0.127533
0.0771653
0.0385483
0.0163958
0.0121581
0.024569
0.0280218
0.0311866
0.0351905
0.0417877
0.0504675
0.0576355
0.0629402
0.0652475
0.069269
0.0719107
0.073672
0.0733793
0.0740333
0.0746676
0.0758638
0.0773904
0.0789172
0.0803045
0.0813966
0.0821073
0.0824899
0.082759
0.0831831
0.0837899
0.0843108
0.084724
0.0849838
0.0850519
0.0849038
0.0845297
0.0839303
0.0831156
0.0821037
0.0809204
0.0796025
0.0782071
0.0768215
0.0755655
0.0745768
0.0739859
0.0738842
0.0743
0.0751926
0.0764741
0.0780321
0.079734
0.0814229
0.0829349
0.0841499
0.0850477
0.0856465
0.0859345
0.0858823
0.0854584
0.0846395
0.0834236
0.0818398
0.0799482
0.0778296
0.0755698
0.0732493
0.070936
0.0686847
0.0665449
0.0645761
0.0628647
0.0615195
0.0606418
0.0603137
0.0606525
0.061868
0.0641361
0.0674878
0.0719394
0.0775072
0.0841862
0.0923548
0.101486
0.111916
0.124117
0.137998
0.153428
0.170027
0.187001
0.203607
0.21901
0.232091
0.241908
0.247702
0.248368
0.242383
0.227632
0.202152
0.166005
0.123137
0.0815617
0.0496737
0.0293749
0.0223879
0.0324729
0.0346554
0.0370272
0.0397503
0.0444441
0.0514056
0.0579781
0.0631908
0.0662576
0.0670664
0.0742295
0.0757536
0.0728843
0.0736642
0.0736825
0.0741842
0.0753285
0.0766089
0.0781046
0.0796647
0.08102
0.0819796
0.0826911
0.0834602
0.0842648
0.0849572
0.0854773
0.0857635
0.085778
0.085514
0.0849878
0.0842213
0.0832354
0.0820484
0.0806789
0.0791555
0.0775354
0.0759196
0.0744542
0.0733109
0.0726489
0.0725716
0.0730967
0.0741596
0.075655
0.0774607
0.0794361
0.0814193
0.0832395
0.0847537
0.0858954
0.0866574
0.0870233
0.0869593
0.0864413
0.0854646
0.0840514
0.0822566
0.0801661
0.0778787
0.075484
0.0730577
0.0706613
0.0683429
0.0661455
0.0641228
0.0623522
0.0609262
0.0599248
0.0594302
0.0596096
0.0607359
0.0628625
0.0659267
0.0699842
0.0750608
0.0812384
0.0891144
0.0985933
0.109904
0.123229
0.138133
0.154231
0.171244
0.188373
0.204555
0.218998
0.230676
0.238773
0.242477
0.240729
0.232239
0.215463
0.189609
0.156201
0.119672
0.0859989
0.0597009
0.0414317
0.0328349
0.0409522
0.0417347
0.0429863
0.0443001
0.0471879
0.0523925
0.0580793
0.0630987
0.0671055
0.0687309
0.0739239
0.0728564
0.0758359
0.0761246
0.0727917
0.0713513
0.0727098
0.0739205
0.0753045
0.0771808
0.0794141
0.0812974
0.0826075
0.0837926
0.0848519
0.0857508
0.0863967
0.0867159
0.0866734
0.0862879
0.0856048
0.0846572
0.0834649
0.0820426
0.0804078
0.0785946
0.0766745
0.0747755
0.0730799
0.0717969
0.0711109
0.0711263
0.0718357
0.0731375
0.0748998
0.0769839
0.0792372
0.0814978
0.0835984
0.0853778
0.0867136
0.0875808
0.0879849
0.0878968
0.0872963
0.0861913
0.0846199
0.0826544
0.0804057
0.0779907
0.0754958
0.0729895
0.0705295
0.0681641
0.0659358
0.0638895
0.0620782
0.0605634
0.05942
0.0587725
0.0588658
0.0599402
0.0619912
0.0649165
0.068796
0.0736938
0.0796925
0.0874347
0.0972049
0.109081
0.12303
0.13867
0.15532
0.172407
0.189096
0.204344
0.21729
0.227059
0.232973
0.234255
0.230014
0.219351
0.201454
0.176608
0.147164
0.117104
0.0902151
0.0685387
0.0523733
0.0431608
0.049641
0.0491202
0.0491607
0.0491139
0.0503488
0.0537942
0.0582768
0.0627146
0.0668666
0.0695885
0.0727802
0.0737945
0.0756587
0.0736727
0.0711358
0.073144
0.0734316
0.0714609
0.0707317
0.0731809
0.077743
0.0811889
0.0828906
0.0843548
0.0856389
0.0867088
0.0874425
0.087761
0.0876277
0.087096
0.0862478
0.0851106
0.0836931
0.0820151
0.080113
0.0780465
0.0759126
0.0738568
0.072073
0.0707757
0.0701486
0.0702851
0.0711513
0.0726274
0.0745686
0.0768214
0.0792197
0.0815987
0.0837997
0.0856735
0.0870967
0.0880112
0.0884233
0.0883279
0.0876998
0.0865522
0.0849305
0.0829142
0.0806292
0.0781915
0.0756807
0.0731601
0.0706865
0.0683098
0.0660737
0.0640181
0.0621838
0.0606252
0.0594359
0.0587554
0.0588701
0.0599408
0.0619224
0.0647675
0.0685394
0.0733456
0.0792494
0.0869618
0.0969799
0.109315
0.12373
0.139728
0.156465
0.173084
0.188648
0.202242
0.213076
0.22045
0.223852
0.222649
0.216232
0.204191
0.18643
0.163954
0.139226
0.115234
0.0939585
0.0761222
0.062068
0.0530146
0.0581516
0.0565961
0.0555321
0.0543145
0.05415
0.0559681
0.0590534
0.0625452
0.0661777
0.0692056
0.0719892
0.0737406
0.0746267
0.0742458
0.0731728
0.0727909
0.0701343
0.0679552
0.0704085
0.0761927
0.0804842
0.081977
0.0827806
0.0843989
0.0859435
0.0871175
0.0878845
0.0881998
0.0880128
0.0874118
0.0865024
0.0853081
0.0838085
0.0820178
0.079993
0.0778263
0.075641
0.0735899
0.0718473
0.0705933
0.0699892
0.0701314
0.0710022
0.072498
0.0744732
0.0767572
0.0791726
0.0815503
0.083741
0.0856224
0.0871011
0.088094
0.0885457
0.0884496
0.0878187
0.0866797
0.0850852
0.0831158
0.0808781
0.078478
0.0760003
0.0735113
0.0710689
0.0687249
0.0665266
0.0645195
0.0627511
0.0612786
0.0601855
0.0595989
0.0597889
0.0609096
0.0628877
0.0657276
0.0695028
0.0743111
0.0801776
0.0880986
0.0985316
0.111243
0.125774
0.141436
0.157366
0.172578
0.18617
0.197385
0.205591
0.210289
0.211175
0.207842
0.200015
0.187743
0.171429
0.152316
0.132456
0.113763
0.0970251
0.0824181
0.0704351
0.0620817
0.0661179
0.0638908
0.0619761
0.0598707
0.0586353
0.0590969
0.060809
0.0631666
0.0659304
0.0686129
0.0710264
0.0728388
0.0740193
0.0744608
0.0740206
0.0734104
0.0728183
0.0728558
0.0744757
0.0772192
0.0792233
0.0804246
0.0825287
0.0850311
0.0865673
0.0876705
0.0884445
0.0887873
0.0886667
0.088136
0.0872482
0.0860169
0.0844407
0.082556
0.0804407
0.0782055
0.0759834
0.0739236
0.0721878
0.0709598
0.0704204
0.0706398
0.0715419
0.0729988
0.0748705
0.0770037
0.0792404
0.0814305
0.0834391
0.0851553
0.0864958
0.0874052
0.0878341
0.0877611
0.0872021
0.0861828
0.0847481
0.0829672
0.0809269
0.0787163
0.076415
0.0740927
0.0718107
0.0696238
0.0675811
0.0657274
0.0641029
0.0627364
0.0617435
0.0614156
0.061912
0.0632013
0.0652926
0.0682477
0.072144
0.077055
0.0829742
0.0912048
0.101965
0.114611
0.128501
0.142919
0.157043
0.169926
0.180807
0.189142
0.194513
0.196646
0.195452
0.190764
0.182593
0.171275
0.157399
0.142062
0.126702
0.11239
0.099289
0.0874323
0.0774357
0.0701102
0.07325
0.0707261
0.0682892
0.0656249
0.0636738
0.0631283
0.0636764
0.0649094
0.0666597
0.068609
0.0704556
0.0720068
0.0731613
0.0738128
0.0740581
0.0742593
0.0745662
0.0750575
0.076092
0.0777448
0.0797397
0.0819611
0.0844423
0.0864835
0.0870693
0.0872814
0.0874495
0.087418
0.0870795
0.0864333
0.0855005
0.0842925
0.0828235
0.0811295
0.0792757
0.0773569
0.0754968
0.0738419
0.0725629
0.0718141
0.0716493
0.0720354
0.0729107
0.0741893
0.0757689
0.0775358
0.0793737
0.0811702
0.0828243
0.0842503
0.0853836
0.0861753
0.0865834
0.0865679
0.0861194
0.085266
0.0840521
0.082537
0.0807904
0.0788851
0.0768913
0.0748737
0.0728916
0.070999
0.0692466
0.0676829
0.0663461
0.0654015
0.0650568
0.0653497
0.0662776
0.0678889
0.0702594
0.073465
0.0775715
0.0826353
0.0886488
0.0969832
0.10746
0.119109
0.131274
0.143359
0.154693
0.1645
0.172238
0.177597
0.180373
0.180485
0.178006
0.172939
0.165446
0.155937
0.144941
0.133231
0.1217
0.110892
0.100721
0.0912278
0.0830886
0.0769462
0.0793765
0.0768919
0.0742744
0.0713861
0.0690708
0.0678862
0.0675827
0.0678732
0.0686628
0.0697553
0.0708961
0.0719427
0.0727954
0.0733789
0.073778
0.0741376
0.0745553
0.0751812
0.0762157
0.0776769
0.0794755
0.0814751
0.0835963
0.0853091
0.0857109
0.0857666
0.0858332
0.0857733
0.08546
0.0848769
0.0840486
0.083003
0.081773
0.080406
0.0789679
0.0775429
0.0762305
0.0751429
0.0743814
0.0739921
0.0739739
0.0743086
0.074963
0.0758864
0.0770146
0.0782735
0.0795856
0.0808742
0.0820691
0.0831099
0.0839494
0.0845505
0.0848799
0.0849048
0.0846079
0.0840024
0.0831214
0.0820081
0.0807138
0.0792938
0.0778048
0.0763034
0.0748457
0.0734873
0.0722791
0.071304
0.0707156
0.070589
0.0709062
0.0716954
0.0730236
0.0749681
0.077599
0.080976
0.0851507
0.0901681
0.0960277
0.103836
0.113119
0.122825
0.132399
0.141441
0.149504
0.156063
0.160811
0.16363
0.164476
0.163381
0.160487
0.155868
0.149705
0.142337
0.134128
0.125546
0.117104
0.109071
0.101296
0.0938548
0.0874318
0.082528
0.0843743
0.0821714
0.0796347
0.0767811
0.0743926
0.0729114
0.0721091
0.0717616
0.0718177
0.0721635
0.0726231
0.0730999
0.0735226
0.0738343
0.0740869
0.0743601
0.0747215
0.0752743
0.0761184
0.0772415
0.0786182
0.0802006
0.0819413
0.0833968
0.0837823
0.0837832
0.0837329
0.0835878
0.0832727
0.0827792
0.0821303
0.0813535
0.0804792
0.0795464
0.0786057
0.077717
0.0769448
0.0763478
0.0759607
0.0757938
0.075848
0.0761152
0.0765768
0.0772032
0.0779567
0.0787932
0.0796663
0.0805291
0.0813378
0.0820536
0.0826445
0.0830852
0.0833561
0.0834396
0.0833198
0.0829936
0.0824786
0.0818063
0.0810157
0.0801492
0.0792512
0.0783667
0.0775435
0.0768508
0.076378
0.0761855
0.0762888
0.076704
0.0774731
0.0786515
0.080295
0.0824545
0.0851744
0.0884932
0.0924419
0.0970449
0.102293
0.108909
0.116343
0.123685
0.130527
0.136646
0.1418
0.145696
0.148204
0.149328
0.1491
0.147595
0.144951
0.141241
0.136596
0.131238
0.125365
0.119224
0.1131
0.107135
0.101196
0.0954194
0.0905098
0.0868283
0.0883334
0.0866641
0.0845229
0.0819315
0.0795998
0.077952
0.0768288
0.0760588
0.0756118
0.0754166
0.0753507
0.0753469
0.0753541
0.075327
0.0752966
0.0753108
0.0754097
0.0756601
0.0761285
0.0768098
0.0777047
0.0788071
0.0801064
0.0812834
0.08171
0.0818088
0.0818309
0.0817771
0.0816083
0.0813203
0.0809294
0.0804574
0.0799302
0.0793794
0.0788409
0.0783525
0.0779497
0.0776532
0.0774736
0.0774189
0.077492
0.0776891
0.0780003
0.0784094
0.0788953
0.0794332
0.0799965
0.0805578
0.0810909
0.0815722
0.0819813
0.0823022
0.0825235
0.0826379
0.0826432
0.0825412
0.0823397
0.0820543
0.0817084
0.0813346
0.080973
0.080668
0.0804651
0.0803943
0.0804762
0.0807416
0.081227
0.0819701
0.0830083
0.084377
0.0861082
0.0882309
0.090769
0.0937405
0.097156
0.101019
0.105306
0.110495
0.116115
0.121464
0.126255
0.130366
0.133673
0.136018
0.137354
0.137726
0.137185
0.135806
0.1337
0.130915
0.127527
0.123658
0.119391
0.114845
0.110198
0.10555
0.10084
0.0962973
0.092628
0.0900304
0.0911564
0.0899274
0.0881988
0.0859112
0.0836526
0.0818579
0.0804696
0.0793777
0.0785704
0.077997
0.0775599
0.0772047
0.0768911
0.0765831
0.0763056
0.0760954
0.0759816
0.0760127
0.0762371
0.0766496
0.0772546
0.0780573
0.0790615
0.0800245
0.0804332
0.0805735
0.0806345
0.0806287
0.0805363
0.0803606
0.0801182
0.0798292
0.0795156
0.079199
0.0789005
0.0786382
0.0784267
0.0782788
0.0782042
0.0782086
0.078294
0.0784582
0.0786955
0.0789961
0.0793478
0.0797359
0.0801444
0.080557
0.0809578
0.0813324
0.0816682
0.0819552
0.0821867
0.0823591
0.0824729
0.082533
0.0825484
0.0825327
0.0825033
0.0824801
0.0824838
0.082538
0.0826687
0.0829023
0.0832649
0.083784
0.0844866
0.0853987
0.086544
0.0879437
0.0896163
0.0915762
0.0938328
0.0963893
0.099242
0.10238
0.10577
0.109778
0.114042
0.118026
0.121518
0.124445
0.126739
0.1283
0.129112
0.129221
0.128677
0.127541
0.1259
0.123787
0.12124
0.11833
0.115086
0.111574
0.107925
0.104232
0.100487
0.0969391
0.0942001
0.0923431
0.0929389
0.0918924
0.0904264
0.0884456
0.086381
0.0846096
0.0831383
0.0819084
0.0809228
0.0801465
0.0795005
0.0789386
0.0784275
0.0779382
0.0774929
0.0771247
0.076859
0.0767352
0.0767916
0.0770212
0.0774263
0.0780117
0.0787817
0.0795399
0.0798613
0.0799765
0.0800368
0.0800532
0.0800113
0.0799143
0.0797761
0.0796102
0.0794293
0.0792466
0.0790758
0.0789292
0.0788175
0.0787493
0.0787311
0.0787668
0.0788578
0.079003
0.0791991
0.0794401
0.0797186
0.0800254
0.0803509
0.0806847
0.081017
0.0813389
0.0816425
0.081922
0.0821736
0.0823957
0.0825895
0.0827589
0.0829106
0.0830538
0.0832005
0.0833651
0.0835639
0.0838156
0.0841399
0.0845573
0.0850873
0.0857489
0.0865602
0.0875383
0.0886984
0.0900537
0.0916144
0.0933875
0.0953759
0.0975776
0.099985
0.102585
0.105344
0.10856
0.111931
0.115025
0.117687
0.119879
0.121561
0.122669
0.123201
0.123202
0.122715
0.12179
0.120492
0.118838
0.11685
0.114565
0.111995
0.109187
0.106245
0.10326
0.100264
0.0974773
0.0953693
0.093925
0.0941211
0.0931419
0.091901
0.090267
0.0884813
0.0868334
0.0853844
0.0841221
0.0830591
0.0821751
0.0814105
0.0807263
0.0800936
0.0794871
0.0789231
0.0784294
0.0780285
0.0777543
0.0776407
0.0776841
0.0778882
0.07826
0.0788071
0.0793805
0.0796212
0.0797008
0.0797437
0.0797589
0.0797341
0.0796719
0.0795827
0.0794768
0.079363
0.0792505
0.0791483
0.079065
0.079008
0.0789835
0.0789961
0.0790488
0.079143
0.0792781
0.0794521
0.0796615
0.0799015
0.0801661
0.080449
0.0807437
0.0810436
0.081343
0.081637
0.0819219
0.0821956
0.0824577
0.0827097
0.0829549
0.0831989
0.0834491
0.0837147
0.0840067
0.0843375
0.0847203
0.085169
0.085698
0.086321
0.0870517
0.0879028
0.088886
0.0900114
0.0912877
0.0927209
0.0943148
0.0960698
0.0979828
0.100046
0.102246
0.104556
0.107204
0.109933
0.112398
0.11449
0.116192
0.117484
0.118322
0.118713
0.118695
0.118305
0.117578
0.116561
0.115258
0.113677
0.111837
0.109744
0.107439
0.105011
0.102553
0.100135
0.0979559
0.0963047
0.0950803
0.0949063
0.0938984
0.0928332
0.0915407
0.0900569
0.0885718
0.0871969
0.0859601
0.0848771
0.0839396
0.0831081
0.0823514
0.0816444
0.0809651
0.0803227
0.0797384
0.0792318
0.0788323
0.0785704
0.0784485
0.0784729
0.0786538
0.0790039
0.0794057
0.0795652
0.0796048
0.079621
0.0796213
0.0795959
0.0795469
0.079482
0.0794085
0.0793328
0.079261
0.0791993
0.0791539
0.07913
0.0791321
0.0791636
0.0792269
0.079323
0.079452
0.0796126
0.0798026
0.0800189
0.0802579
0.0805152
0.0807868
0.0810685
0.0813564
0.0816478
0.0819402
0.0822329
0.0825258
0.0828206
0.0831202
0.0834289
0.0837525
0.0840981
0.0844736
0.0848882
0.0853515
0.0858737
0.0864651
0.0871358
0.0878955
0.0887532
0.0897169
0.0907938
0.0919891
0.0933069
0.0947488
0.0963144
0.0980003
0.0997997
0.101702
0.103686
0.105902
0.108134
0.110126
0.111805
0.113167
0.114199
0.114874
0.115202
0.115215
0.114939
0.114398
0.113617
0.112593
0.111324
0.109816
0.108078
0.106151
0.104116
0.102064
0.100113
0.0984384
0.0971215
0.0959733
0.0954106
0.0943043
0.0933661
0.0923945
0.0912175
0.0899215
0.0886597
0.0874912
0.0864284
0.0854734
0.0846087
0.0838114
0.0830619
0.0823421
0.0816534
0.0810097
0.0804268
0.0799279
0.0795397
0.0792705
0.0791299
0.0791304
0.0792898
0.0795175
0.0795941
0.0795924
0.0795781
0.0795564
0.079521
0.0794733
0.0794189
0.0793627
0.0793087
0.079261
0.0792239
0.0792016
0.0791979
0.0792161
0.0792587
0.0793276
0.0794239
0.0795478
0.0796987
0.0798755
0.0800762
0.0802986
0.0805401
0.080798
0.0810697
0.081353
0.0816459
0.0819474
0.0822569
0.0825751
0.0829032
0.0832438
0.0836001
0.0839767
0.0843787
0.0848124
0.0852843
0.0858016
0.0863716
0.0870018
0.0876993
0.088471
0.0893228
0.0902606
0.0912884
0.0924098
0.0936264
0.0949393
0.096347
0.0978473
0.0994353
0.101104
0.102841
0.104703
0.106522
0.108135
0.109503
0.110621
0.11148
0.112065
0.112385
0.112463
0.112313
0.11195
0.111378
0.110587
0.109568
0.108323
0.106862
0.105232
0.103505
0.101771
0.100196
0.0989337
0.097849
0.0966747
0.0957173
0.0944694
0.0936035
0.0929113
0.0920315
0.0909431
0.0898258
0.0887568
0.0877409
0.0867904
0.085911
0.0850905
0.0843163
0.0835762
0.0828642
0.0821856
0.0815516
0.0809775
0.0804842
0.0800857
0.0797944
0.0796245
0.0795976
0.0796482
0.0796432
0.0796041
0.0795606
0.0795158
0.0794673
0.0794166
0.0793665
0.0793199
0.0792791
0.0792465
0.079225
0.0792173
0.0792263
0.0792543
0.0793033
0.0793748
0.07947
0.0795892
0.0797325
0.0798993
0.0800887
0.0802994
0.0805299
0.0807787
0.0810444
0.0813254
0.0816209
0.0819304
0.0822537
0.0825916
0.0829451
0.0833164
0.0837082
0.0841237
0.084567
0.0850425
0.0855552
0.0861101
0.0867126
0.0873679
0.0880809
0.0888562
0.0896977
0.0906088
0.091592
0.0926485
0.093779
0.094983
0.0962594
0.0976064
0.0990223
0.100505
0.102051
0.103614
0.10508
0.106388
0.107522
0.108472
0.109223
0.10977
0.11012
0.110284
0.110266
0.110069
0.10968
0.109084
0.108273
0.107238
0.106001
0.104614
0.103132
0.101644
0.10036
0.0994156
0.0984753
0.097216
0.0958981
0.0944895
0.0936341
0.093158
0.0925506
0.0916833
0.0907357
0.0897884
0.0888365
0.0879032
0.0870184
0.0861825
0.0853922
0.0846435
0.0839237
0.0832297
0.0825665
0.08194
0.081363
0.0808544
0.0804285
0.0801011
0.0798957
0.0797696
0.0796887
0.0796184
0.0795487
0.0794818
0.0794206
0.0793661
0.0793184
0.0792782
0.0792464
0.0792244
0.0792138
0.0792164
0.0792341
0.0792687
0.0793219
0.0793949
0.0794887
0.0796043
0.0797418
0.0799013
0.0800826
0.0802851
0.0805083
0.0807512
0.0810132
0.0812937
0.0815923
0.0819087
0.0822433
0.0825967
0.0829701
0.0833649
0.0837833
0.0842279
0.0847015
0.0852076
0.0857496
0.0863312
0.0869561
0.0876277
0.0883495
0.0891242
0.0899542
0.0908409
0.0917854
0.0927875
0.0938463
0.0949606
0.0961285
0.0973488
0.0986224
0.0999525
0.10135
0.102654
0.10382
0.104885
0.105849
0.106688
0.107377
0.107922
0.108327
0.108585
0.108693
0.108646
0.108413
0.10798
0.107338
0.106477
0.105425
0.104237
0.102953
0.101652
0.100574
0.0998454
0.0989727
0.0976152
0.096014
0.094447
0.0935368
0.0931952
0.0928236
0.0921852
0.0914242
0.0906105
0.0897318
0.0888224
0.0879354
0.087086
0.0862821
0.08553
0.0848118
0.0841164
0.0834418
0.0827832
0.082143
0.0815435
0.0810005
0.0805318
0.0801553
0.0798576
0.0797147
0.0796227
0.0795305
0.0794439
0.0793718
0.079314
0.0792679
0.0792323
0.0792072
0.0791929
0.0791904
0.0792004
0.0792245
0.0792638
0.0793198
0.0793936
0.0794865
0.0795992
0.0797324
0.0798867
0.0800621
0.0802589
0.0804768
0.0807157
0.0809755
0.0812559
0.0815571
0.0818791
0.0822223
0.0825875
0.0829755
0.0833877
0.0838257
0.0842915
0.0847873
0.0853154
0.0858784
0.0864789
0.0871193
0.087802
0.088529
0.0893018
0.0901215
0.0909884
0.091902
0.0928612
0.0938639
0.0949074
0.0959891
0.0971071
0.0982632
0.0994654
0.100742
0.101826
0.102746
0.10363
0.104479
0.10525
0.105915
0.106482
0.106951
0.107302
0.107523
0.107601
0.107496
0.107194
0.10669
0.10597
0.105072
0.104047
0.102921
0.101757
0.100806
0.100181
0.0993128
0.0978867
0.096113
0.0944063
0.0933834
0.093088
0.0929056
0.0924938
0.0919234
0.0912428
0.0904387
0.0895555
0.0886663
0.0878025
0.0869846
0.0862297
0.0855176
0.0848301
0.0841574
0.0834834
0.082799
0.0821274
0.0814869
0.0809032
0.0803638
0.0799017
0.0797167
0.0796127
0.0795033
0.0794024
0.0793235
0.0792644
0.0792202
0.0791886
0.079169
0.079161
0.0791647
0.0791806
0.0792095
0.0792526
0.0793109
0.0793858
0.0794782
0.0795892
0.0797198
0.0798706
0.0800423
0.0802353
0.0804499
0.0806864
0.0809449
0.0812256
0.0815289
0.081855
0.0822045
0.0825781
0.0829766
0.083401
0.0838528
0.0843333
0.0848444
0.0853876
0.085965
0.0865781
0.0872287
0.0879183
0.0886479
0.0894183
0.0902294
0.0910808
0.0919711
0.0928982
0.0938589
0.0948495
0.0958658
0.0969045
0.0979656
0.099059
0.10023
0.101137
0.101878
0.102642
0.103419
0.104157
0.104821
0.105424
0.105956
0.106387
0.1067
0.106876
0.106868
0.106667
0.106268
0.105661
0.104884
0.103988
0.102985
0.101918
0.101024
0.100392
0.0994858
0.0980508
0.0962193
0.0944058
0.0932351
0.0929062
0.0928597
0.0926563
0.0922632
0.0917025
0.0909671
0.0901092
0.0892165
0.0883374
0.0875047
0.0867453
0.0860401
0.085365
0.0847021
0.084025
0.0833128
0.0825859
0.0818655
0.0811936
0.0805137
0.079915
0.079702
0.0795866
0.0794639
0.0793542
0.0792721
0.0792134
0.0791719
0.0791445
0.0791299
0.0791274
0.0791364
0.0791573
0.0791905
0.0792369
0.0792977
0.0793739
0.0794668
0.0795774
0.0797068
0.0798559
0.0800257
0.0802167
0.0804295
0.0806647
0.0809226
0.0812038
0.0815087
0.0818376
0.0821913
0.0825703
0.0829756
0.0834079
0.0838684
0.0843583
0.0848789
0.0854316
0.0860177
0.0866385
0.0872951
0.0879884
0.0887189
0.0894866
0.0902912
0.0911314
0.0920053
0.0929101
0.0938419
0.0947962
0.0957673
0.0967498
0.0977401
0.0987437
0.0998159
0.1006
0.101238
0.101935
0.102675
0.1034
0.104078
0.104718
0.105301
0.105793
0.106172
0.106414
0.106474
0.106343
0.10602
0.105496
0.104809
0.104005
0.103089
0.102088
0.101199
0.100476
0.0995104
0.0981319
0.0963317
0.0944542
0.0931377
0.0927245
0.0927569
0.0927213
0.0924726
0.0920067
0.0913274
0.0904912
0.089594
0.0887002
0.087853
0.0870872
0.0863871
0.0857248
0.0850743
0.0844014
0.0836743
0.0829065
0.0821215
0.0813613
0.0805849
0.0799272
0.0796928
0.0795611
0.0794287
0.0793147
0.0792311
0.0791729
0.0791336
0.0791094
0.0790987
0.0791002
0.0791133
0.0791379
0.0791744
0.0792237
0.0792866
0.0793643
0.0794581
0.079569
0.0796984
0.0798471
0.0800161
0.0802064
0.0804186
0.0806533
0.0809112
0.0811928
0.0814987
0.0818293
0.0821853
0.0825674
0.0829763
0.0834128
0.083878
0.0843728
0.0848984
0.0854559
0.0860463
0.0866708
0.0873299
0.0880244
0.0887544
0.0895197
0.0903195
0.0911522
0.0920157
0.0929067
0.0938211
0.0947535
0.0956977
0.0966463
0.0975919
0.0985311
0.0995122
0.100235
0.100843
0.101515
0.102236
0.102959
0.103651
0.104317
0.104933
0.105463
0.10588
0.10616
0.106261
0.106174
0.105898
0.105428
0.104798
0.104048
0.103185
0.102225
0.101317
0.100467
0.0994442
0.0981598
0.0964302
0.0945295
0.0931084
0.0926038
0.0926656
0.0927375
0.0925837
0.0921788
0.0915373
0.0907164
0.0898148
0.0889092
0.0880499
0.0872763
0.0865781
0.0859249
0.0852842
0.0846166
0.0838824
0.0830855
0.0822543
0.0814126
0.0805838
0.0799357
0.0796793
0.0795299
0.0793932
0.0792793
0.0791965
0.0791398
0.0791027
0.0790814
0.0790737
0.0790783
0.0790944
0.0791218
0.0791608
0.0792122
0.079277
0.0793563
0.0794513
0.0795632
0.0796932
0.0798423
0.0800117
0.0802021
0.0804145
0.0806494
0.0809076
0.0811897
0.0814962
0.0818277
0.0821848
0.0825682
0.0829786
0.0834168
0.0838838
0.0843804
0.0849077
0.0854668
0.0860585
0.0866837
0.0873432
0.0880372
0.088766
0.089529
0.0903254
0.0911536
0.0920112
0.0928948
0.0938001
0.0947217
0.0956529
0.0965853
0.0975094
0.0984141
0.0993275
0.100044
0.100668
0.101336
0.102047
0.102767
0.103468
0.104144
0.104772
0.105318
0.105752
0.106048
0.10617
0.106105
0.105853
0.105412
0.10481
0.104083
0.103244
0.102303
0.101359
0.100412
0.0993701
0.098167
0.0964954
0.0945937
0.0931218
0.0925568
0.0926199
0.0927399
0.0926295
0.0922512
0.0916264
0.0908121
0.0899066
0.0889933
0.0881265
0.0873465
0.086648
0.0859991
0.0853636
0.0846998
0.0839639
0.0831503
0.0822806
0.0813921
0.080567
0.0799553
0.0796769
0.0795121
0.0793725
0.079259
0.0791769
0.0791213
0.0790856
0.0790659
0.0790599
0.0790661
0.0790836
0.0791124
0.0791527
0.0792053
0.079271
0.0793512
0.0794468
0.0795593
0.0796898
0.0798393
0.080009
0.0801997
0.0804123
0.0806475
0.0809059
0.0811882
0.0814949
0.0818267
0.082184
0.0825677
0.0829784
0.0834168
0.083884
0.0843808
0.0849082
0.0854671
0.0860586
0.0866835
0.0873423
0.0880355
0.0887631
0.0895246
0.0903193
0.0911453
0.0920003
0.092881
0.093783
0.0947009
0.0956278
0.0965552
0.097473
0.0983676
0.0992496
0.0999832
0.100629
0.101299
0.102004
0.102719
0.103421
0.104099
0.104728
0.105278
0.105717
0.106018
0.106148
0.106093
0.105849
0.105418
0.104826
0.104104
0.10327
0.102334
0.101361
0.100373
0.0993415
0.0981769
0.0965239
0.0946272
0.0931435
0.0925573
0.092616
0.0927462
0.0926444
0.0922692
0.0916449
0.0908289
0.0899188
0.0890005
0.0881293
0.0873449
0.0866438
0.0859932
0.0853555
0.0846885
0.0839478
0.0831245
0.0822385
0.0813464
0.0805422
0.0799527
0.0796675
0.0794991
0.0793595
0.0792467
0.0791653
0.0791101
0.079075
0.0790559
0.0790504
0.0790571
0.0790751
0.0791044
0.0791452
0.0791982
0.0792644
0.079345
0.0794411
0.0795539
0.0796847
0.0798345
0.0800044
0.0801954
0.0804081
0.0806435
0.080902
0.0811844
0.0814912
0.0818229
0.0821803
0.0825638
0.0829744
0.0834126
0.0838795
0.084376
0.0849029
0.0854614
0.0860523
0.0866764
0.0873344
0.0880266
0.0887532
0.0895136
0.0903069
0.0911315
0.0919851
0.0928642
0.0937647
0.0946811
0.0956065
0.0965325
0.097449
0.0983409
0.099216
0.0999612
0.100616
0.101288
0.101991
0.102706
0.103409
0.104087
0.104718
0.10527
0.105712
0.106016
0.10615
0.106099
0.105859
0.105432
0.104841
0.104119
0.103284
0.102348
0.101366
0.100369
0.0993435
0.0981867
)
;

boundaryField
{
    inlet
    {