/*--------------------------------*- C++ -*----------------------------------*\
| =========                 |                                                 |
| \\      /  F ield         | OpenFOAM: The Open Source CFD Toolbox           |
|  \\    /   O peration     | Version:  v1912                                 |
|   \\  /    A nd           | Website:  www.openfoam.com                      |
|    \\/     M anipulation  |                                                 |
\*---------------------------------------------------------------------------*/
FoamFile
{
    version     2.0;
    format      ascii;
    class       volScalarField;
    location    "10000";
    object      p;
}
// * * * * * * * * * * * * * * * * * * * * * * * * * * * * * * * * * * * * * //

dimensions      [0 2 -2 0 0 0 0];


internalField   nonuniform List<scalar> 
3000
(
-3.18313e-06
0.00121376
-0.00141798
0.0108091
0.0353728
0.0528252
0.0611729
0.0660336
0.0690783
0.0712966
0.0730042
0.0741598
0.0754312
0.0766661
0.0777022
0.078492
0.0789444
0.0790955
0.0790302
0.078865
0.0786829
0.0785116
0.0782924
0.0778734
0.0772723
0.0764241
0.0754539
0.0744832
0.073663
0.0731482
0.073079
0.0735551
0.0746203
0.0762607
0.0784194
0.0810205
0.0839871
0.0872378
0.0906675
0.0941239
0.0973947
0.100222
0.102351
0.103626
0.104062
0.103832
0.103148
0.102199
0.101178
0.100274
0.0995149
0.0986531
0.0975459
0.0963102
0.095001
0.0932192
0.0905764
0.0871827
0.0833873
0.0794251
0.0753674
0.0713113
0.0674181
0.0638152
0.0606248
0.0579624
0.0559435
0.0546968
0.0543744
0.0551561
0.057241
0.060826
0.066081
0.0732377
0.0830709
0.0971495
0.114577
0.125996
0.133615
0.14039
0.147243
0.15479
0.163572
0.174425
0.18753
0.202301
0.217628
0.232117
0.244549
0.254269
0.260668
0.262773
0.258679
0.244377
0.212971
0.15471
0.0625169
-0.025828
-0.0501453
-0.0252581
0.00102282
0.0027461
0.000216516
0.0108854
0.0338661
0.0513686
0.0602854
0.0654515
0.0686974
0.071033
0.0728401
0.0740356
0.0753045
0.076559
0.0776297
0.0784667
0.0789686
0.0791549
0.0791028
0.0789335
0.0787417
0.0785617
0.0783311
0.077903
0.0773075
0.0764527
0.0754715
0.0744879
0.0736555
0.0731323
0.0730596
0.073537
0.0746065
0.0762519
0.0784136
0.0810152
0.0839813
0.0872303
0.0906554
0.0941033
0.0973631
0.100179
0.102302
0.103577
0.104011
0.103778
0.103094
0.102146
0.101129
0.100231
0.099485
0.0986373
0.0975396
0.0963248
0.0950567
0.0933216
0.0907069
0.0873171
0.0835073
0.0795203
0.075445
0.0713756
0.0674663
0.0638472
0.0606402
0.0579596
0.0559191
0.0546447
0.0542872
0.0550268
0.0570631
0.0605902
0.0657649
0.0727847
0.0823071
0.095641
0.111952
0.123708
0.131907
0.13917
0.146551
0.154727
0.164283
0.175892
0.189578
0.204636
0.219894
0.234019
0.245936
0.255114
0.260952
0.262231
0.256792
0.240472
0.206561
0.146997
0.0604377
-0.017036
-0.0405813
-0.0213808
0.00358653
0.0066972
0.00590891
0.0140104
0.0336586
0.0500114
0.0593919
0.064807
0.0682435
0.0706981
0.0726479
0.0738827
0.075138
0.0764086
0.0775113
0.0784038
0.0789699
0.0792103
0.0791884
0.0790262
0.0788367
0.0786512
0.0783854
0.0779212
0.0773291
0.076455
0.0754441
0.0744255
0.0735602
0.0730134
0.0729301
0.0734098
0.0744909
0.0761522
0.0783293
0.0809441
0.0839194
0.0871693
0.0905853
0.094016
0.0972558
0.100057
0.102179
0.10347
0.103929
0.103712
0.103032
0.102092
0.101092
0.100215
0.0995078
0.098711
0.0976373
0.096418
0.0951216
0.0933767
0.0907639
0.0873742
0.0835426
0.0795068
0.0753786
0.0712665
0.06732
0.0636721
0.0604435
0.0577446
0.0556836
0.0543806
0.053983
0.054672
0.0566503
0.0601056
0.065172
0.0719974
0.0810477
0.093096
0.107239
0.118793
0.127636
0.135676
0.143979
0.153222
0.163983
0.176666
0.191137
0.206587
0.221803
0.235553
0.246996
0.255718
0.260887
0.261047
0.254028
0.235662
0.19996
0.141427
0.0637019
-0.00179969
-0.0256619
-0.0142737
0.00691598
0.0114823
0.0130904
0.0197166
0.0347612
0.0495858
0.0581768
0.0641043
0.0677368
0.0702716
0.0724407
0.0737103
0.07492
0.0761975
0.077318
0.0782706
0.0789156
0.0792371
0.0792812
0.079158
0.078972
0.0787535
0.0784148
0.0778871
0.0772773
0.0763534
0.0752787
0.0741951
0.0732749
0.0726922
0.0725964
0.0730861
0.0741951
0.0758949
0.0781129
0.0807636
0.0837611
0.0870143
0.0904142
0.0938154
0.0970244
0.099811
0.101952
0.103297
0.10383
0.103679
0.103047
0.102154
0.101206
0.10035
0.0996273
0.0988629
0.097849
0.0966378
0.0952417
0.0933466
0.0906298
0.0871732
0.0832669
0.0791412
0.0749349
0.070771
0.0667917
0.0631271
0.0598933
0.057193
0.0551236
0.0537935
0.0533465
0.0539762
0.055904
0.0593177
0.0643207
0.0710038
0.0796455
0.0905284
0.102774
0.113956
0.123364
0.132259
0.141617
0.152057
0.164091
0.177822
0.192963
0.208598
0.223539
0.236793
0.247832
0.256
0.260165
0.258957
0.25008
0.229509
0.19233
0.135843
0.0671717
0.0120547
-0.0118084
-0.0066887
0.0118075
0.016879
0.0200014
0.0258148
0.0370317
0.0496122
0.0574014
0.0631566
0.067217
0.069664
0.0722091
0.0735385
0.0746387
0.0759076
0.0770117
0.0780188
0.0787479
0.0791679
0.0793095
0.0792467
0.0790608
0.0787944
0.0783711
0.0777735
0.077101
0.0760888
0.0749115
0.0737273
0.0727216
0.0720799
0.0719599
0.0724635
0.0736211
0.0753932
0.0776905
0.0804113
0.0834547
0.0867231
0.0901094
0.0934798
0.096664
0.099462
0.101677
0.103167
0.103893
0.103939
0.103472
0.102701
0.101832
0.101014
0.100294
0.0995168
0.0984757
0.0971369
0.0954586
0.0932289
0.0902659
0.0866553
0.0826337
0.0784126
0.0741417
0.0699489
0.0659645
0.0623097
0.0590935
0.0564084
0.054334
0.0529609
0.0524368
0.0529868
0.0548521
0.0581898
0.0630494
0.0694865
0.077638
0.0874735
0.0983207
0.109155
0.119091
0.12893
0.13948
0.151223
0.164538
0.179214
0.194835
0.210422
0.224952
0.237833
0.248377
0.2556
0.258465
0.255557
0.244506
0.221681
0.183645
0.130495
0.0712214
0.0252912
0.00221228
0.00230749
0.0178383
0.0225328
0.0261837
0.0312489
0.0397714
0.0501514
0.0569701
0.0627657
0.0667491
0.0686725
0.0718128
0.0734159
0.0742944
0.075539
0.0765506
0.0775828
0.0783736
0.0788681
0.0791116
0.0791296
0.0789813
0.078696
0.0782211
0.0775738
0.0767771
0.0756229
0.0742865
0.0729404
0.0717884
0.0710393
0.0708735
0.0714042
0.0726549
0.0745611
0.0770015
0.079848
0.0829835
0.0863031
0.0897028
0.0930657
0.0962522
0.0991024
0.101455
0.103184
0.104229
0.104621
0.104469
0.103948
0.103249
0.102517
0.101763
0.100842
0.0995849
0.0979157
0.0957774
0.093069
0.0897428
0.085903
0.0817414
0.0774377
0.0731305
0.0689351
0.0649636
0.0613268
0.0581294
0.0554545
0.0533605
0.0519246
0.0513191
0.0518072
0.0536248
0.0568624
0.0615366
0.0676854
0.0753238
0.0842782
0.0941469
0.1047
0.115141
0.125987
0.137802
0.150832
0.165284
0.180647
0.196487
0.211899
0.226141
0.238543
0.248161
0.254112
0.255333
0.250378
0.236954
0.212141
0.174258
0.125747
0.0757657
0.0376928
0.0160033
0.0121435
0.0249196
0.0286299
0.0319875
0.0360254
0.042468
0.0510169
0.0575366
0.0628137
0.0654548
0.0691492
0.0713198
0.0736995
0.07393
0.0751453
0.075907
0.0769189
0.0777538
0.0782631
0.0786021
0.0787434
0.0786907
0.0784426
0.0779799
0.0773023
0.076315
0.0749506
0.0733719
0.0717659
0.0703713
0.0694499
0.0692297
0.0698376
0.0712684
0.0733999
0.0760661
0.0791125
0.0824084
0.085841
0.0893084
0.09271
0.0959369
0.0988695
0.101386
0.103381
0.104786
0.105593
0.105862
0.105718
0.105306
0.104704
0.103871
0.102696
0.101061
0.0989023
0.0961943
0.0929378
0.0891887
0.0850752
0.0807567
0.0763764
0.072045
0.0678535
0.0638938
0.0602693
0.0570825
0.0544026
0.0522607
0.0507311
0.0500209
0.0504221
0.0521321
0.0552044
0.0596584
0.0655169
0.0727218
0.0810675
0.0903459
0.10074
0.111705
0.123585
0.136634
0.150776
0.166084
0.181891
0.197796
0.213161
0.226904
0.238366
0.246692
0.251
0.250215
0.242948
0.227208
0.201079
0.164649
0.121856
0.0806158
0.0491376
0.0291713
0.0224821
0.0328838
0.0352418
0.0377286
0.0404544
0.0450259
0.0518775
0.0580596
0.0630745
0.0663987
0.0665902
0.0735421
0.075149
0.0728925
0.0748084
0.0752221
0.0761372
0.0770298
0.0774012
0.0777958
0.0781177
0.0782617
0.0781602
0.0777939
0.077095
0.0758686
0.0742131
0.07227
0.0702558
0.0684878
0.067331
0.0670854
0.0678683
0.0695905
0.0720376
0.0750027
0.0783194
0.0818443
0.0854562
0.0890527
0.0925444
0.095846
0.0988722
0.101538
0.103763
0.105487
0.106689
0.107396
0.107677
0.107591
0.107119
0.10619
0.104724
0.102657
0.0999696
0.0966941
0.0929131
0.0887539
0.0843664
0.0798901
0.0754399
0.0711004
0.0669368
0.0630181
0.0594263
0.0562364
0.053485
0.0511924
0.0494724
0.0485909
0.0488556
0.050409
0.0532918
0.057554
0.0631991
0.0701426
0.0781983
0.087225
0.0975891
0.10906
0.121862
0.135947
0.150918
0.166742
0.183036
0.198948
0.213799
0.226629
0.236725
0.243344
0.245623
0.242547
0.232933
0.215326
0.188969
0.155379
0.118945
0.0855315
0.0595102
0.041448
0.0330558
0.04143
0.0423093
0.0436057
0.0448888
0.0476745
0.052784
0.0582431
0.0630499
0.0671065
0.0683893
0.0730565
0.0715176
0.0760159
0.0769451
0.0741725
0.0744586
0.0762603
0.0765095
0.0769553
0.0775488
0.0780597
0.0782617
0.0780041
0.0771627
0.0755563
0.0734271
0.0709247
0.0683443
0.0661403
0.0648144
0.0647129
0.0658528
0.0679723
0.0707867
0.0740866
0.077701
0.0814797
0.0852974
0.0890519
0.0926598
0.096051
0.0991627
0.101936
0.104316
0.10626
0.107749
0.108793
0.109408
0.109568
0.109185
0.108172
0.106466
0.104041
0.100926
0.0972061
0.0930204
0.0885434
0.0839427
0.079344
0.0748454
0.0705144
0.0663915
0.0625049
0.0588799
0.0555379
0.0525185
0.0499433
0.0480504
0.0471351
0.0474045
0.0489181
0.0517248
0.0559043
0.0614568
0.0683029
0.0762944
0.0852722
0.0956517
0.107488
0.120828
0.135593
0.151341
0.167624
0.183935
0.199398
0.213241
0.22464
0.232897
0.237396
0.23736
0.231942
0.22032
0.201744
0.176513
0.146945
0.11696
0.0902386
0.0687115
0.0526348
0.0435262
0.0501954
0.0496959
0.049718
0.049606
0.0507454
0.0541064
0.0584535
0.0627327
0.0668374
0.0694227
0.072262
0.0729793
0.075685
0.0739502
0.0733262
0.0773659
0.0780668
0.0759807
0.0755212
0.0766437
0.078229
0.0791469
0.0788308
0.0775209
0.0753699
0.0727115
0.0697328
0.0668055
0.0644681
0.0632695
0.0634815
0.0649497
0.0673296
0.0703529
0.0738321
0.0775944
0.0814916
0.0854012
0.0892238
0.0928795
0.0963025
0.0994369
0.102232
0.104644
0.106643
0.108219
0.109389
0.110156
0.110444
0.110124
0.109102
0.107318
0.104764
0.101492
0.0976154
0.0932945
0.0887219
0.084054
0.0794053
0.0748744
0.0705297
0.0664038
0.0625024
0.0588203
0.0553727
0.0522479
0.0496555
0.0478619
0.0470665
0.0473264
0.0487358
0.0514071
0.0554208
0.0607924
0.0674659
0.0753366
0.0842148
0.0946195
0.106829
0.120703
0.135987
0.152097
0.168402
0.184154
0.198509
0.210729
0.220126
0.22611
0.228219
0.225845
0.218416
0.205576
0.187264
0.16448
0.139643
0.115675
0.0944684
0.076664
0.0625902
0.0535402
0.0587939
0.0571887
0.05605
0.0547327
0.0544686
0.0562098
0.0592109
0.0626052
0.0661834
0.069169
0.0718553
0.0735301
0.0747107
0.0746339
0.0747698
0.0764557
0.0757654
0.0754912
0.0770454
0.079194
0.0806029
0.080723
0.0797421
0.0779093
0.0753928
0.0724938
0.0694128
0.0664822
0.0641789
0.0630263
0.063281
0.0647875
0.067227
0.07033
0.0738811
0.0777011
0.0816415
0.0855809
0.0894209
0.0930812
0.0964952
0.0996064
0.102366
0.104735
0.106692
0.10824
0.109417
0.110221
0.110549
0.110269
0.109285
0.107539
0.105027
0.101802
0.0979726
0.0936885
0.0891263
0.0844529
0.0798009
0.0752711
0.070933
0.0668239
0.0629566
0.059335
0.0559846
0.0529915
0.0505197
0.0487647
0.04793
0.0481653
0.0495496
0.0521597
0.0560762
0.0613322
0.0678936
0.075669
0.0844567
0.0950685
0.107706
0.121948
0.137284
0.153061
0.168557
0.182933
0.195418
0.205395
0.212336
0.215819
0.215581
0.211247
0.202573
0.189639
0.172866
0.153482
0.133495
0.114759
0.0979945
0.0833167
0.0712198
0.0627769
0.0668575
0.0645193
0.0624814
0.0602437
0.0588959
0.0592795
0.0609299
0.0632286
0.0659562
0.0686309
0.0710508
0.0728987
0.0742614
0.0750365
0.0753074
0.075773
0.0761276
0.0767832
0.0778884
0.0791662
0.0802574
0.0808334
0.0806809
0.0793617
0.076659
0.0734779
0.07025
0.0673494
0.0652886
0.0644477
0.0648717
0.0663799
0.0687293
0.0716919
0.075074
0.0787111
0.0824649
0.0862194
0.0898784
0.0933623
0.0966037
0.0995446
0.102135
0.104336
0.106132
0.107552
0.108627
0.109314
0.109523
0.109168
0.108177
0.106502
0.104135
0.101116
0.0975362
0.0935241
0.08923
0.0848018
0.0803666
0.0760234
0.0718435
0.0678762
0.0641541
0.0607041
0.0575595
0.0547784
0.0524569
0.0507807
0.0500692
0.0504946
0.0520519
0.0547969
0.0587946
0.0640686
0.0705824
0.0782504
0.0868869
0.0976029
0.110354
0.124344
0.138919
0.153432
0.167177
0.179347
0.189305
0.196616
0.200946
0.202077
0.199953
0.194438
0.185568
0.173696
0.159421
0.143822
0.128298
0.113874
0.100662
0.088651
0.0784653
0.0709734
0.0740897
0.0714101
0.0688138
0.0659896
0.0639066
0.0632706
0.0637556
0.0649398
0.0666593
0.0686009
0.0704628
0.0720635
0.0733508
0.0742385
0.0748377
0.0754463
0.0760857
0.0767538
0.0775524
0.0784165
0.079212
0.0797292
0.0797687
0.0787653
0.0760762
0.0731353
0.0706172
0.0687453
0.0676683
0.0674612
0.0681187
0.0695551
0.0716342
0.0742078
0.077135
0.0802885
0.0835553
0.0868372
0.0900495
0.09312
0.0959868
0.0985968
0.100907
0.102892
0.104555
0.105901
0.106891
0.107455
0.107531
0.107067
0.106025
0.104389
0.102172
0.0994161
0.0961961
0.09261
0.08877
0.0847897
0.0807731
0.0768078
0.0729654
0.0693026
0.0658647
0.0626903
0.0598232
0.05734
0.0554317
0.0543853
0.0543342
0.0552742
0.0572413
0.0602911
0.0644647
0.0697668
0.0761626
0.0835854
0.0918966
0.102297
0.11444
0.127255
0.140062
0.152317
0.163438
0.172761
0.179841
0.184448
0.186439
0.185778
0.182567
0.176838
0.168773
0.158797
0.147441
0.135466
0.123733
0.112755
0.102406
0.0926998
0.0843212
0.0779601
0.0803061
0.0776456
0.0748514
0.0717866
0.0693211
0.0680263
0.0676426
0.0678711
0.0686141
0.0696752
0.0707996
0.0718502
0.0727427
0.0734068
0.0739223
0.0744048
0.0748963
0.0754539
0.0761284
0.0768139
0.0774189
0.0778603
0.0781098
0.0777441
0.0760442
0.0741943
0.0728001
0.0719251
0.0715498
0.071703
0.0724021
0.0736166
0.0752794
0.0773067
0.07961
0.0821032
0.0847049
0.0873399
0.0899402
0.092445
0.0948006
0.0969616
0.0988934
0.100575
0.10199
0.103102
0.103859
0.104221
0.104154
0.103633
0.102641
0.101179
0.0992646
0.0969335
0.0942422
0.0912618
0.0880737
0.0847624
0.0814105
0.0780956
0.0748881
0.0718516
0.0690449
0.0665322
0.0643998
0.0628027
0.0619015
0.0617437
0.0623433
0.0637479
0.0660123
0.0691806
0.0732783
0.0783062
0.0842428
0.0910494
0.0986378
0.108011
0.118595
0.129264
0.139435
0.14873
0.156758
0.163068
0.167417
0.169742
0.170044
0.16839
0.164949
0.159819
0.153199
0.14544
0.136909
0.128063
0.119396
0.111156
0.103164
0.0954801
0.0887981
0.0836537
0.0853757
0.0830037
0.0802941
0.0772634
0.0747155
0.0731066
0.0722027
0.0717696
0.0717509
0.0720292
0.072426
0.0728434
0.073211
0.0734683
0.07366
0.0738467
0.0740622
0.0743578
0.074769
0.0752326
0.0757206
0.0762254
0.0767663
0.0770245
0.0763728
0.0755796
0.0750542
0.0748337
0.0749028
0.0752801
0.0759823
0.0770007
0.078304
0.0798484
0.0815835
0.0834569
0.0854158
0.0874089
0.0893874
0.0913062
0.0931243
0.0948065
0.096323
0.0976484
0.0987491
0.0995854
0.100125
0.100342
0.100221
0.0997498
0.0989267
0.0977592
0.0962662
0.0944779
0.0924359
0.0901907
0.0878007
0.0853283
0.0828381
0.0803944
0.0780609
0.0759005
0.0739794
0.072377
0.0711987
0.0705208
0.0703686
0.0707714
0.0717736
0.0734185
0.0757428
0.0787712
0.0825162
0.086976
0.092135
0.097966
0.104406
0.112136
0.120536
0.128631
0.135989
0.142392
0.147627
0.151441
0.153744
0.154575
0.154
0.152119
0.149092
0.145011
0.140019
0.134348
0.128197
0.121806
0.115452
0.109264
0.103096
0.0970823
0.0919277
0.0880156
0.0894086
0.0876039
0.0853168
0.0825659
0.0800769
0.0782899
0.077046
0.0761677
0.0756198
0.0753274
0.075164
0.0750592
0.0749583
0.0748112
0.0746421
0.0744877
0.074372
0.0743407
0.0744394
0.0746505
0.0749826
0.0754612
0.0761304
0.0767594
0.0767941
0.0766751
0.0766913
0.0768782
0.0772229
0.0777354
0.0784299
0.0793076
0.0803555
0.0815514
0.0828676
0.084273
0.0857344
0.087218
0.0886907
0.0901209
0.0914797
0.092741
0.0938802
0.0948706
0.0956828
0.09629
0.0966723
0.0968155
0.096711
0.0963553
0.0957515
0.094909
0.0938447
0.0925825
0.0911536
0.0895951
0.0879496
0.0862633
0.0845855
0.0829667
0.0814593
0.0801189
0.0790091
0.0781971
0.0777281
0.0776255
0.077917
0.0786341
0.0798079
0.0814645
0.0836245
0.0863002
0.0894956
0.0932043
0.0974093
0.102084
0.107174
0.113141
0.119458
0.125368
0.130565
0.134931
0.138357
0.140702
0.141943
0.142149
0.141394
0.139769
0.137403
0.134354
0.130706
0.126588
0.122083
0.117306
0.112433
0.107563
0.102629
0.097869
0.0940086
0.091246
0.0922943
0.0909685
0.0891312
0.0867137
0.084311
0.082374
0.0808532
0.0796382
0.0787141
0.0780274
0.0774773
0.0770058
0.0765691
0.0761275
0.0757014
0.0753228
0.0750146
0.0748187
0.0747794
0.0748935
0.0751769
0.0756586
0.0763791
0.0771393
0.0774596
0.0776402
0.0778953
0.0782539
0.0787048
0.0792535
0.0799111
0.0806806
0.0815559
0.0825244
0.083569
0.0846698
0.0858051
0.0869519
0.0880874
0.0891893
0.0902367
0.0912102
0.0920905
0.0928561
0.0934849
0.0939589
0.0942658
0.0943968
0.0943476
0.0941178
0.0937121
0.0931397
0.0924148
0.0915567
0.0905894
0.0895411
0.0884438
0.0873323
0.0862438
0.0852174
0.0842959
0.0835271
0.0829585
0.0826211
0.0825364
0.082729
0.0832245
0.0840464
0.0852155
0.0867478
0.0886542
0.0909382
0.0935962
0.0966154
0.099974
0.103641
0.107562
0.112098
0.116849
0.121233
0.125027
0.128159
0.130567
0.132159
0.132932
0.132946
0.132265
0.130963
0.129138
0.12683
0.124083
0.120969
0.117521
0.113803
0.109948
0.106054
0.102116
0.0983956
0.0955301
0.0935755
0.094117
0.0930031
0.0914613
0.0893823
0.0871937
0.0852862
0.0836804
0.0823219
0.0812126
0.0803166
0.0795523
0.0788709
0.0782361
0.0776164
0.0770319
0.0765139
0.0760866
0.0757892
0.0756621
0.0757046
0.0759305
0.0763628
0.0770318
0.0777615
0.0781372
0.0783988
0.0787181
0.0791154
0.0795779
0.0801068
0.0807093
0.0813876
0.0821376
0.0829508
0.0838154
0.0847176
0.085642
0.0865724
0.0874921
0.0883849
0.089235
0.0900276
0.0907478
0.0913804
0.0919082
0.0923176
0.0926003
0.0927507
0.0927665
0.0926488
0.0924023
0.0920352
0.0915594
0.0909904
0.0903472
0.0896517
0.0889284
0.0882042
0.0875087
0.0868756
0.0863422
0.08594
0.0856921
0.0856198
0.0857452
0.0860895
0.0866721
0.0875098
0.0886163
0.090001
0.0916688
0.093619
0.0958447
0.0983327
0.101062
0.104005
0.107114
0.110688
0.114397
0.117773
0.120654
0.122999
0.124774
0.125914
0.126425
0.126361
0.125776
0.124726
0.123287
0.12148
0.119331
0.116879
0.114138
0.111154
0.108041
0.104894
0.101753
0.0988555
0.0966733
0.0951686
0.095332
0.0943073
0.0930181
0.0913158
0.0894286
0.0876555
0.0860754
0.0846843
0.0834959
0.0824899
0.0816059
0.0808029
0.0800502
0.079321
0.0786305
0.0780069
0.077474
0.0770685
0.0768288
0.0767592
0.0768739
0.0771942
0.0777475
0.0783828
0.0787435
0.0790171
0.0793414
0.0797302
0.0801707
0.080662
0.0812084
0.0818112
0.0824671
0.0831698
0.0839104
0.0846787
0.085463
0.0862513
0.0870307
0.0877886
0.0885128
0.0891915
0.0898134
0.0903675
0.0908413
0.0912233
0.0915063
0.0916869
0.0917643
0.09174
0.0916183
0.0914062
0.0911138
0.0907534
0.0903404
0.0898919
0.0894282
0.0889722
0.0885512
0.0881911
0.0879128
0.0877353
0.0876787
0.087762
0.0880034
0.0884192
0.0890239
0.0898293
0.0908447
0.0920758
0.0935248
0.0951895
0.0970632
0.0991344
0.101386
0.103795
0.106324
0.109206
0.112161
0.114818
0.117059
0.118866
0.120218
0.121073
0.121441
0.121367
0.120895
0.120067
0.118936
0.117511
0.115801
0.113828
0.111597
0.109154
0.106595
0.104019
0.101509
0.0992773
0.0975971
0.0963381
0.0961509
0.0951123
0.0940195
0.0926832
0.0911185
0.0895211
0.0880217
0.0866591
0.0854516
0.0843922
0.0834419
0.0825683
0.0817456
0.0809513
0.0801941
0.0794969
0.0788818
0.0783817
0.0780327
0.0778446
0.0778329
0.0780179
0.0784262
0.0789331
0.0792448
0.0794956
0.0797919
0.0801448
0.0805439
0.0809871
0.081477
0.0820137
0.0825943
0.0832132
0.0838635
0.0845368
0.0852239
0.0859151
0.0866001
0.087269
0.0879115
0.0885181
0.0890796
0.0895874
0.0900332
0.0904085
0.090706
0.0909223
0.0910573
0.0911127
0.0910922
0.0910021
0.0908503
0.0906474
0.0904059
0.0901415
0.0898723
0.0896166
0.0893913
0.0892131
0.0890993
0.089067
0.0891324
0.089311
0.0896168
0.0900623
0.0906584
0.0914138
0.0923349
0.0934253
0.0946862
0.0961151
0.0977069
0.0994523
0.101338
0.103348
0.105454
0.107809
0.110179
0.112286
0.114052
0.11547
0.116527
0.117195
0.117489
0.117445
0.117096
0.116471
0.1156
0.11448
0.113113
0.111504
0.109664
0.107638
0.105513
0.103388
0.101396
0.0997215
0.0984147
0.0972523
0.0966875
0.0955623
0.0946109
0.0936135
0.0923734
0.0909783
0.0896006
0.0883114
0.0871268
0.0860512
0.0850684
0.0841559
0.083294
0.0824649
0.0816706
0.0809266
0.0802519
0.0796739
0.0792243
0.0789185
0.0787731
0.0788085
0.079051
0.079405
0.0796498
0.079865
0.0801231
0.0804339
0.0807897
0.0811885
0.0816304
0.0821148
0.0826381
0.0831958
0.0837813
0.0843878
0.0850074
0.085632
0.0862531
0.0868622
0.0874509
0.0880112
0.0885353
0.0890162
0.0894473
0.0898231
0.0901386
0.0903903
0.0905765
0.0906988
0.0907604
0.0907667
0.0907252
0.0906449
0.0905368
0.0904127
0.0902853
0.0901681
0.0900754
0.0900213
0.0900201
0.0900854
0.0902306
0.0904675
0.0908075
0.0912601
0.0918335
0.0925342
0.0933665
0.0943329
0.0954333
0.0966661
0.0980269
0.0995096
0.101106
0.102804
0.104588
0.106513
0.108397
0.110061
0.11146
0.11259
0.11344
0.113994
0.114268
0.114288
0.114073
0.113642
0.113001
0.112141
0.111055
0.109741
0.108214
0.106524
0.104747
0.102982
0.101409
0.100191
0.0991477
0.0979751
0.0970256
0.0957705
0.094901
0.0941942
0.0932645
0.0920895
0.0908655
0.0896818
0.0885474
0.0874777
0.0864807
0.0855457
0.0846608
0.083815
0.0830032
0.082233
0.0815186
0.0808796
0.0803417
0.0799251
0.0796479
0.0795299
0.0795977
0.0797846
0.0799556
0.0801325
0.0803517
0.0806202
0.0809349
0.0812935
0.0816947
0.0821363
0.0826148
0.0831255
0.0836627
0.0842201
0.084791
0.0853682
0.0859446
0.0865128
0.0870658
0.0875966
0.0880988
0.0885663
0.0889935
0.0893758
0.0897093
0.0899917
0.0902219
0.0904008
0.090531
0.0906166
0.0906633
0.0906784
0.0906705
0.0906493
0.0906254
0.09061
0.0906146
0.0906511
0.0907309
0.0908653
0.091065
0.0913397
0.0916982
0.092148
0.0926953
0.0933446
0.094099
0.0949595
0.0959258
0.0969958
0.0981666
0.099434
0.100794
0.102243
0.103777
0.105338
0.106804
0.108104
0.109222
0.110144
0.110854
0.111351
0.111646
0.111753
0.111679
0.11143
0.110994
0.110354
0.109503
0.108431
0.107161
0.105749
0.104253
0.102768
0.101519
0.100651
0.0997748
0.098533
0.0972364
0.0958344
0.0949816
0.0944955
0.0938467
0.0929034
0.0918577
0.0908013
0.0897343
0.0886829
0.0876806
0.0867299
0.0858292
0.0849763
0.08416
0.0833794
0.0826428
0.0819603
0.0813492
0.080834
0.080434
0.0801683
0.0800624
0.0800769
0.0801742
0.0803171
0.0805014
0.0807326
0.0810125
0.0813391
0.0817089
0.0821186
0.0825642
0.0830411
0.083544
0.084067
0.084604
0.0851486
0.0856947
0.0862357
0.0867654
0.0872779
0.0877675
0.088229
0.0886577
0.0890495
0.0894014
0.0897111
0.0899779
0.0902021
0.0903858
0.0905321
0.0906459
0.0907329
0.0908004
0.0908562
0.0909092
0.0909687
0.0910444
0.0911461
0.0912834
0.0914658
0.091702
0.092
0.0923669
0.0928086
0.0933297
0.0939335
0.0946216
0.0953942
0.0962502
0.0971872
0.0982023
0.0992931
0.100459
0.101703
0.103039
0.104287
0.105396
0.106407
0.107316
0.108096
0.108723
0.109206
0.109551
0.109756
0.109819
0.109735
0.109474
0.10902
0.108363
0.107492
0.106436
0.105253
0.103983
0.102709
0.101689
0.101053
0.10026
0.0989403
0.0973809
0.0958361
0.0949322
0.0945807
0.0941714
0.0934647
0.0926129
0.0916949
0.0907035
0.0896771
0.0886721
0.0877071
0.0867923
0.0859361
0.0851226
0.0843431
0.0835988
0.0828888
0.0822205
0.0816216
0.0811124
0.0807128
0.0804423
0.0802883
0.0803197
0.0804358
0.0805907
0.0807905
0.0810427
0.0813446
0.081691
0.0820773
0.0824991
0.0829518
0.0834301
0.0839286
0.0844417
0.0849636
0.0854886
0.0860111
0.0865255
0.0870265
0.087509
0.0879686
0.0884008
0.0888023
0.0891702
0.0895026
0.0897984
0.0900581
0.090283
0.0904758
0.0906403
0.0907814
0.0909051
0.0910181
0.0911278
0.0912422
0.0913697
0.0915185
0.0916969
0.091913
0.0921742
0.0924872
0.0928578
0.0932907
0.0937894
0.0943561
0.0949915
0.0956951
0.0964647
0.0972975
0.0981899
0.0991394
0.100147
0.101221
0.102395
0.103377
0.104198
0.104993
0.10576
0.106452
0.10704
0.107538
0.107947
0.108249
0.108434
0.108488
0.108369
0.108063
0.107563
0.106855
0.105975
0.104978
0.103886
0.102765
0.10188
0.101349
0.100571
0.0992115
0.0975064
0.0958384
0.094825
0.0945169
0.0942968
0.0938209
0.0931646
0.0923829
0.0914677
0.0904678
0.0894602
0.0884797
0.08755
0.0866904
0.085883
0.085112
0.0843707
0.0836471
0.0829373
0.0822702
0.0816685
0.0811561
0.0807316
0.0804208
0.0804051
0.0805046
0.0806371
0.0808137
0.0810462
0.0813311
0.0816614
0.0820317
0.0824374
0.0828736
0.0833354
0.0838174
0.0843144
0.0848211
0.0853323
0.0858428
0.0863474
0.0868415
0.0873203
0.0877797
0.0882159
0.0886255
0.0890061
0.0893557
0.0896734
0.0899593
0.0902145
0.090441
0.0906422
0.0908221
0.0909859
0.0911394
0.0912892
0.0914421
0.0916055
0.0917867
0.0919932
0.0922318
0.0925091
0.0928309
0.0932022
0.0936269
0.0941077
0.094646
0.0952421
0.0958944
0.0966005
0.0973564
0.0981577
0.0990003
0.0998839
0.100818
0.101852
0.102625
0.103241
0.103895
0.104573
0.10522
0.105799
0.10633
0.106802
0.107188
0.10747
0.107629
0.107616
0.107422
0.107041
0.106459
0.105716
0.104861
0.103903
0.102886
0.10206
0.101511
0.1007
0.0993698
0.097633
0.0958731
0.0947155
0.0943713
0.0942851
0.094019
0.0935425
0.0928825
0.092037
0.0910626
0.0900511
0.0890545
0.0881093
0.0872446
0.0864438
0.085685
0.0849536
0.0842268
0.0834897
0.0827693
0.082093
0.0815021
0.0809407
0.0804895
0.0804453
0.0805331
0.0806493
0.0808107
0.0810311
0.0813055
0.0816261
0.0819868
0.0823827
0.0828089
0.0832604
0.0837322
0.0842191
0.0847163
0.0852188
0.0857218
0.0862204
0.0867103
0.087187
0.0876468
0.088086
0.0885016
0.0888911
0.0892527
0.0895855
0.0898894
0.0901652
0.0904146
0.0906406
0.0908466
0.0910373
0.0912179
0.0913942
0.0915726
0.0917596
0.091962
0.0921864
0.0924393
0.0927265
0.0930533
0.0934242
0.0938424
0.0943104
0.0948291
0.0953982
0.096016
0.0966794
0.0973839
0.0981239
0.0988934
0.0996882
0.100512
0.101423
0.102055
0.102557
0.103134
0.103765
0.104392
0.104981
0.105545
0.106069
0.106516
0.106864
0.107092
0.107151
0.107033
0.106734
0.106243
0.105598
0.104842
0.103975
0.103025
0.102204
0.101547
0.10068
0.0994425
0.0977622
0.095949
0.0946491
0.0942194
0.0942091
0.0941095
0.0937775
0.0932127
0.0924235
0.0914706
0.0904544
0.0894426
0.0884825
0.0876109
0.086815
0.0860686
0.085349
0.0846252
0.0838722
0.0831117
0.0823751
0.0817058
0.0810496
0.0805346
0.080471
0.0805438
0.0806482
0.0808014
0.0810152
0.081284
0.0815994
0.0819549
0.0823456
0.0827663
0.0832122
0.0836783
0.0841596
0.0846513
0.0851488
0.0856473
0.0861424
0.0866298
0.0871053
0.0875652
0.0880061
0.0884251
0.0888199
0.0891885
0.0895301
0.0898445
0.0901324
0.0903953
0.0906357
0.090857
0.0910634
0.0912597
0.0914513
0.0916443
0.0918447
0.092059
0.0922934
0.092554
0.0928464
0.0931754
0.0935452
0.093959
0.0944188
0.0949255
0.0954785
0.096076
0.0967145
0.0973893
0.0980941
0.0988212
0.0995627
0.100313
0.101119
0.101685
0.102156
0.102703
0.103311
0.10393
0.104531
0.105119
0.105672
0.106154
0.106541
0.106805
0.106907
0.106834
0.106584
0.106151
0.105566
0.104865
0.104052
0.103137
0.102278
0.101494
0.100595
0.099472
0.0978711
0.0960404
0.0946399
0.0941189
0.0941358
0.0941416
0.0939034
0.0933992
0.0926475
0.0917099
0.0906893
0.0896657
0.0886938
0.0878145
0.0870208
0.0862834
0.0855732
0.0848536
0.0840918
0.0833016
0.082521
0.0817762
0.081071
0.0805654
0.0804817
0.0805366
0.0806348
0.0807861
0.0809984
0.0812657
0.0815796
0.0819337
0.0823226
0.0827414
0.0831851
0.0836488
0.0841277
0.084617
0.0851122
0.0856087
0.0861021
0.0865883
0.0870631
0.087523
0.0879647
0.0883852
0.0887822
0.0891541
0.0894999
0.0898192
0.0901127
0.0903819
0.0906291
0.0908576
0.0910713
0.0912749
0.0914737
0.0916733
0.0918798
0.0920994
0.0923381
0.0926018
0.092896
0.0932254
0.093594
0.0940049
0.0944601
0.0949604
0.0955052
0.0960925
0.0967191
0.0973798
0.0980681
0.0987758
0.0994929
0.100205
0.100938
0.101496
0.101983
0.102527
0.103123
0.103738
0.104345
0.104942
0.105506
0.106003
0.106405
0.106684
0.106806
0.106756
0.10653
0.106126
0.105569
0.104891
0.104101
0.103203
0.102286
0.101413
0.100525
0.099486
0.0979392
0.0961101
0.0946613
0.0940808
0.0940983
0.094151
0.0939556
0.0934774
0.0927421
0.0918109
0.0907862
0.0897548
0.0887753
0.0878898
0.0870959
0.0863629
0.0856575
0.0849407
0.0841756
0.0833678
0.0825508
0.0817596
0.0810598
0.0805953
0.0804915
0.0805309
0.0806259
0.0807774
0.0809902
0.0812578
0.0815721
0.0819264
0.0823155
0.0827342
0.0831777
0.0836409
0.0841193
0.084608
0.0851025
0.0855983
0.0860911
0.0865766
0.087051
0.0875106
0.0879521
0.0883728
0.0887702
0.0891427
0.0894892
0.0898096
0.0901045
0.0903752
0.0906241
0.0908544
0.0910699
0.0912754
0.0914759
0.0916771
0.091885
0.0921057
0.0923452
0.0926094
0.0929035
0.0932324
0.0936
0.0940094
0.0944626
0.0949603
0.0955021
0.0960859
0.0967084
0.0973646
0.0980479
0.0987498
0.0994602
0.100163
0.100862
0.101435
0.101944
0.10249
0.103081
0.103691
0.104298
0.104896
0.105461
0.105962
0.106369
0.106653
0.106783
0.106741
0.106524
0.10613
0.105582
0.104909
0.104124
0.103232
0.102282
0.101373
0.100503
0.0994991
0.0979691
0.0961452
0.0946856
0.0940846
0.0940982
0.0941615
0.0939749
0.0935002
0.0927656
0.0918326
0.0908033
0.0897669
0.088783
0.0878933
0.0870969
0.0863626
0.085655
0.0849346
0.0841633
0.0833427
0.0825082
0.0817151
0.0810382
0.0805974
0.0804868
0.0805225
0.0806177
0.0807702
0.0809838
0.0812521
0.0815669
0.0819217
0.0823111
0.0827301
0.0831737
0.0836371
0.0841155
0.0846042
0.0850987
0.0855945
0.0860871
0.0865726
0.0870469
0.0875065
0.0879479
0.0883685
0.088766
0.0891385
0.0894852
0.0898058
0.0901008
0.0903717
0.0906209
0.0908514
0.0910671
0.0912727
0.0914733
0.0916745
0.0918823
0.0921027
0.0923417
0.0926052
0.0928986
0.0932264
0.0935929
0.0940009
0.0944526
0.0949486
0.0954886
0.0960706
0.0966912
0.0973455
0.0980271
0.0987274
0.0994362
0.100138
0.100829
0.101411
0.10193
0.102477
0.103067
0.103676
0.104284
0.104883
0.10545
0.105953
0.106362
0.106649
0.106784
0.106747
0.106533
0.106143
0.105597
0.104924
0.104137
0.103246
0.102287
0.101373
0.100509
0.0995107
)
;

boundaryField
{
    inlet
    {
        type            cyclic;
    }
    outlet
    {
        type            cyclic;
    }
    topWall
    {
        type            zeroGradient;
    }
    bottomWall
    {