/*--------------------------------*- C++ -*----------------------------------*\
| =========                 |                                                 |
| \\      /  F ield         | OpenFOAM: The Open Source CFD Toolbox           |
|  \\    /   O peration     | Version:  v1912                                 |
|   \\  /    A nd           | Website:  www.openfoam.com                      |
|    \\/     M anipulation  |                                                 |
\*---------------------------------------------------------------------------*/
FoamFile
{
    version     2.0;
    format      ascii;
    class       volScalarField;
    location    "1";
    object      timeScale;
}
// * * * * * * * * * * * * * * * * * * * * * * * * * * * * * * * * * * * * * //

dimensions      [0 0 1 0 0 0 0];


internalField   nonuniform List<scalar> 
3000
(
0.0549081
0.0550006
0.0536775
0.0487491
0.0431439
0.0404471
0.0401119
0.0415853
0.0447464
0.0487445
0.05268
0.0564833
0.0601083
0.0636256
0.0678203
0.0731728
0.0798426
0.0879594
0.0970957
0.106027
0.113931
0.11989
0.122938
0.123027
0.123
0.122999
0.122996
0.122992
0.122987
0.122981
0.122977
0.122974
0.122971
0.122967
0.122964
0.122961
0.122957
0.122951
0.122945
0.122943
0.122942
0.122941
0.122948
0.122961
0.122976
0.122989
0.122995
0.122984
0.122938
0.122863
0.122762
0.122641
0.122505
0.122362
0.122221
0.122086
0.121966
0.121865
0.121786
0.12173
0.121696
0.121684
0.121689
0.121711
0.121748
0.121797
0.121853
0.121912
0.121971
0.122024
0.122067
0.122098
0.122113
0.122118
0.122132
0.122192
0.122346
0.122394
0.119439
0.113538
0.105682
0.0968124
0.0877193
0.0796693
0.0730513
0.0677425
0.0635773
0.0601022
0.05647
0.052692
0.0487453
0.0447096
0.041535
0.0399741
0.040198
0.0426141
0.0476791
0.0523236
0.0539487
0.0545216
0.207182
0.213289
0.188683
0.166406
0.209899
0.254292
0.262467
0.271878
0.289765
0.310655
0.333539
0.353309
0.370988
0.3973
0.428476
0.467151
0.514536
0.570389
0.630569
0.68543
0.721961
0.70376
0.709403
0.735663
0.771738
0.78657
0.798441
0.80492
0.807284
0.80675
0.802506
0.794073
0.783799
0.780735
0.784053
0.781099
0.772593
0.767298
0.768388
0.756211
0.730044
0.703509
0.688369
0.633401
0.571201
0.529869
0.500983
0.483955
0.474801
0.47056
0.47011
0.472683
0.477773
0.485068
0.494375
0.505568
0.518537
0.533124
0.549117
0.566203
0.583927
0.601869
0.619728
0.636968
0.651103
0.660732
0.669192
0.676679
0.683489
0.690039
0.696873
0.704666
0.71412
0.725622
0.739051
0.751133
0.754069
0.722125
0.68348
0.648191
0.612574
0.575885
0.539563
0.50814
0.482331
0.460702
0.442424
0.425522
0.403476
0.374254
0.344684
0.319668
0.304306
0.301287
0.311408
0.331651
0.338841
0.273315
0.217664
0.19773
0.513816
0.489768
0.399653
0.310633
0.312821
0.562134
0.929536
1.0339
1.07973
1.10943
1.15765
1.19228
1.23903
1.35973
1.50024
1.66319
1.84051
2.01862
2.17505
2.2801
2.27587
2.05972
1.94364
2.09968
2.4174
2.47254
2.4828
2.46292
2.42518
2.37237
2.31103
2.24704
2.19672
2.20786
2.18054
2.05167
1.91262
1.75718
1.57505
1.32535
1.12349
1.01752
0.971824
0.953664
0.937787
0.935085
0.94489
0.968101
1.00357
1.05019
1.10807
1.17763
1.25945
1.35421
1.46233
1.58363
1.7169
1.85972
2.00673
2.15061
2.28228
2.39297
2.46931
2.51009
2.54185
2.56663
2.5867
2.60318
2.61717
2.6298
2.64211
2.65498
2.66876
2.68248
2.69248
2.68956
2.65052
2.52429
2.3971
2.29502
2.19913
2.10214
2.00607
1.92065
1.84841
1.78706
1.73305
1.68584
1.62858
1.53889
1.44543
1.38295
1.36588
1.39528
1.4668
1.55532
1.56802
1.16049
0.706294
0.536791
1.20726
1.05457
0.770945
0.524066
0.443185
0.495644
1.28707
2.46138
2.86131
2.90431
2.93091
2.94741
3.02944
3.27158
3.48903
3.67106
3.78447
3.82411
3.80007
3.72409
3.59285
3.41455
3.26424
3.46781
3.69651
3.62647
3.49992
3.36026
3.20445
3.03514
2.86068
2.67963
2.49795
2.33603
2.16031
1.91344
1.71167
1.57824
1.5015
1.47932
1.43766
1.42714
1.45147
1.50138
1.56903
1.65803
1.7707
1.90982
2.07644
2.27
2.48922
2.73078
2.98859
3.25349
3.51324
3.75402
3.96229
4.12736
4.24331
4.31069
4.33484
4.32298
4.30098
4.28006
4.26179
4.24647
4.23442
4.22602
4.22179
4.22244
4.22894
4.24241
4.2639
4.29401
4.33202
4.37163
4.3865
4.32033
4.18454
4.02452
3.85569
3.68429
3.51583
3.36326
3.22875
3.13244
3.06387
3.05572
3.0275
2.93964
2.84867
2.78388
2.75932
2.77732
2.83666
2.92576
2.99264
2.77515
1.87438
1.34798
2.43765
2.09852
1.44538
0.875703
0.640356
0.599809
0.713841
1.96047
4.14758
5.21394
5.36377
5.28498
5.18292
5.16889
5.10328
4.99285
4.8324
4.63654
4.4254
4.20831
3.98988
3.79479
3.68016
3.71227
3.70236
3.64886
3.6001
3.50578
3.36657
3.18735
2.97855
2.74858
2.50976
2.29812
2.21394
2.18468
2.12762
2.08093
2.06432
2.07977
2.11455
2.18474
2.29497
2.44279
2.62306
2.83134
3.06225
3.30792
3.5564
3.79312
4.00405
4.17799
4.30862
4.39511
4.44138
4.45452
4.44311
4.41595
4.38104
4.34487
4.31195
4.28452
4.26315
4.24783
4.2385
4.23519
4.2381
4.24766
4.2645
4.2895
4.32385
4.36889
4.42592
4.49571
4.57756
4.66498
4.73369
4.7369
4.65019
4.50825
4.34302
4.17463
4.00724
3.85872
3.72834
3.66041
3.63571
3.61766
3.55115
3.47373
3.40332
3.35464
3.33849
3.36116
3.42738
3.53243
3.6367
3.6632
3.23263
2.67053
3.72266
3.41155
2.50438
1.4617
0.95628
0.785694
0.782086
0.893572
2.33338
4.89865
6.55404
7.03045
6.76257
6.45912
6.17578
5.92094
5.67449
5.41397
5.14913
4.88013
4.6087
4.36998
4.24256
4.26166
4.32732
4.37025
4.37933
4.32929
4.21461
4.05568
3.87354
3.68831
3.51624
3.36651
3.22178
3.10307
3.01822
2.97064
2.96626
3.0066
3.08899
3.21281
3.3728
3.55744
3.75041
3.93485
4.09678
4.22617
4.31778
4.37174
4.39274
4.38792
4.36498
4.33067
4.29013
4.24713
4.20446
4.16444
4.12914
4.09986
4.07619
4.05788
4.04512
4.03807
4.03682
4.04151
4.0524
4.06992
4.09481
4.12815
4.17129
4.22599
4.29419
4.37764
4.47661
4.58507
4.68162
4.72613
4.69058
4.59486
4.46659
4.33721
4.20652
4.09152
4.02932
3.98657
3.95237
3.8922
3.82471
3.76087
3.71024
3.68599
3.6983
3.7529
3.85322
3.99143
4.12459
4.19478
4.09839
3.85457
4.6152
4.47375
3.7416
2.36367
1.46721
1.09078
0.966293
0.968385
1.04851
1.82129
4.08562
7.08592
8.39724
8.19457
7.86122
7.5649
7.307
7.07134
6.86077
6.66313
6.46262
6.2765
6.14611
6.14522
6.28029
6.31574
6.22101
6.04788
5.83632
5.59833
5.34361
5.08001
4.81413
4.55185
4.31271
4.12828
3.99872
3.92213
3.89643
3.91661
3.97363
4.05475
4.14463
4.22717
4.28951
4.32528
4.33455
4.32146
4.29208
4.25276
4.20891
4.16438
4.12122
4.07995
4.04042
4.00246
3.96639
3.93327
3.90463
3.88063
3.86108
3.84661
3.83766
3.83445
3.83704
3.84544
3.85969
3.87998
3.90684
3.94105
3.98387
4.03714
4.10315
4.18487
4.28552
4.40125
4.51785
4.59265
4.60679
4.57044
4.4961
4.41804
4.35206
4.2893
4.26835
4.22352
4.17504
4.12336
4.07396
4.03285
4.00898
4.01569
4.06247
4.15331
4.28863
4.45621
4.61068
4.69815
4.69585
4.63551
5.25548
5.21457
4.80526
3.53146
2.26057
1.58485
1.28582
1.17477
1.16128
1.25213
1.36516
3.17121
5.17705
8.88281
9.62091
9.57495
9.36512
9.09408
8.85074
8.62663
8.39286
8.13409
7.84377
7.63644
7.48682
7.25691
6.96805
6.67442
6.39533
6.12467
5.85918
5.59816
5.34256
5.09563
4.87818
4.6991
4.5617
4.46521
4.40532
4.37426
4.36135
4.3545
4.34283
4.31922
4.28188
4.2335
4.17906
4.12381
4.07221
4.02724
3.98974
3.95821
3.92908
3.89851
3.86438
3.82694
3.78849
3.75265
3.7213
3.69515
3.67538
3.6623
3.65593
3.65609
3.66255
3.67506
3.69341
3.71749
3.74734
3.78316
3.82547
3.87517
3.93401
4.0044
4.09314
4.19796
4.32014
4.41489
4.4749
4.49956
4.5066
4.48364
4.47449
4.45995
4.43694
4.41048
4.38429
4.35828
4.33683
4.32598
4.33518
4.37738
4.46068
4.58683
4.75275
4.94241
5.11047
5.20876
5.23325
5.23193
5.82237
5.81722
5.61191
4.73462
3.36506
2.35909
1.81153
1.54068
1.41958
1.3976
1.4173
1.53687
1.63386
2.98034
5.19304
6.8385
8.67486
9.01175
8.87547
8.57919
8.26379
7.92892
7.59045
7.25387
6.91799
6.6069
6.35013
6.15167
5.97342
5.79711
5.61615
5.4312
5.24721
5.07091
4.91233
4.77587
4.6631
4.57207
4.49903
4.43891
4.38541
4.33188
4.27343
4.2083
4.13796
4.06599
3.99671
3.93455
3.88351
3.84645
3.82374
3.81267
3.80496
3.79284
3.77905
3.75929
3.72001
3.64293
3.58676
3.55403
3.53514
3.52603
3.5248
3.53048
3.54243
3.56022
3.58358
3.61242
3.64683
3.68703
3.73311
3.78494
3.84246
3.91329
3.99419
4.08129
4.17981
4.28462
4.38104
4.45288
4.51456
4.54961
4.57161
4.58559
4.59588
4.60443
4.61218
4.62009
4.63323
4.65835
4.70498
4.78484
4.90408
5.06188
5.25193
5.45573
5.63015
5.73378
5.76958
5.78656
6.38704
6.39345
6.27829
5.76597
4.6515
3.47006
2.64119
2.14889
1.87398
1.7344
1.66891
1.6676
1.69023
1.81856
2.02977
2.1955
3.4499
4.53753
4.98135
5.19276
5.37699
5.56825
5.57196
5.3115
5.03926
4.94609
4.96393
5.01713
5.0823
5.13908
5.17349
5.17237
5.11748
4.98774
4.86027
4.75324
4.66348
4.57631
4.49865
4.42968
4.3664
4.3047
4.24095
4.1734
4.10237
4.02942
3.95661
3.88634
3.82154
3.76497
3.7177
3.67768
3.64167
3.60318
3.54449
3.49253
3.48541
3.47045
3.45949
3.45934
3.46275
3.47016
3.48221
3.4992
3.52133
3.54848
3.58052
3.6173
3.65893
3.7056
3.75757
3.81471
3.87694
3.94701
4.0202
4.09829
4.17727
4.27275
4.37716
4.4739
4.55632
4.62592
4.68716
4.74238
4.79344
4.84173
4.88818
4.9345
4.9863
5.05055
5.13612
5.25284
5.40449
5.58788
5.79431
6.0045
6.1792
6.28359
6.32481
6.34859
6.97909
6.98948
6.91151
6.61361
5.88429
4.83047
3.83673
3.10611
2.62716
2.3289
2.1445
2.03906
1.98228
1.97986
2.02381
2.08327
2.21688
2.37733
2.49207
2.55804
2.6006
2.82193
3.11745
3.10325
3.0442
3.07107
3.12028
3.1847
3.2583
3.32629
3.37559
3.40603
3.43811
3.51671
3.60906
3.69691
3.76837
3.84876
3.91587
3.95971
3.993
4.0162
4.02828
4.02878
4.01833
3.99845
3.97119
3.93889
3.90414
3.86894
3.83303
3.79287
3.74598
3.6974
3.64037
3.56611
3.48364
3.45605
3.46254
3.48088
3.5032
3.52771
3.55473
3.58506
3.61929
3.65771
3.70033
3.747
3.79754
3.85176
3.90947
3.97034
4.03388
4.09956
4.16688
4.23612
4.30649
4.39182
4.49089
4.59454
4.69702
4.79626
4.89271
4.9861
5.07643
5.16413
5.24982
5.33533
5.42619
5.52886
5.65088
5.79976
5.97699
6.17756
6.39164
6.60085
6.77073
6.87241
6.91538
6.9414
7.61923
7.63079
7.57042
7.37504
6.93908
6.2034
5.30298
4.4576
3.78847
3.30213
2.95754
2.71787
2.55235
2.44615
2.38889
2.36702
2.38346
2.42814
2.47667
2.51481
2.54442
2.55749
2.5638
2.57916
2.60475
2.61491
2.61872
2.61643
2.60944
2.60014
2.59041
2.58231
2.57916
2.58921
2.61544
2.6562
2.70704
2.77121
2.8468
2.93083
3.01955
3.10893
3.19519
3.27526
3.347
3.40926
3.46182
3.50516
3.54032
3.56848
3.59051
3.60701
3.61882
3.62608
3.62712
3.62157
3.61871
3.62054
3.62878
3.64435
3.6675
3.69799
3.73523
3.77845
3.82683
3.8796
3.93601
3.99541
4.05723
4.121
4.18625
4.25258
4.31955
4.3867
4.45358
4.52
4.58539
4.66676
4.76691
4.8795
4.99936
5.12319
5.24941
5.3758
5.50076
5.62373
5.74475
5.86532
5.99037
6.12528
6.27589
6.44741
6.63952
6.84633
7.05821
7.25891
7.4192
7.51542
7.55795
7.58387
8.32211
8.33399
8.28491
8.13875
7.86447
7.41472
6.78345
6.05433
5.34689
4.73504
4.23584
3.84189
3.5359
3.30263
3.1315
3.01187
2.93688
2.89911
2.88776
2.89321
2.91082
2.93783
2.97478
3.0177
3.05496
3.08643
3.11307
3.13559
3.15438
3.16933
3.18013
3.18666
3.18882
3.18659
3.1808
3.17301
3.16493
3.15838
3.155
3.15611
3.16247
3.17426
3.19109
3.21218
3.2366
3.26334
3.29153
3.32044
3.34953
3.37851
3.4073
3.43596
3.46444
3.49467
3.53026
3.57337
3.62382
3.68115
3.74464
3.81339
3.88644
3.96286
4.04174
4.12231
4.20385
4.28579
4.36763
4.44896
4.52942
4.60873
4.6866
4.76277
4.83697
4.90889
4.97818
5.04454
5.10776
5.18876
5.29263
5.41383
5.54729
5.6891
5.83659
5.98626
6.13548
6.28293
6.42812
6.57205
6.71874
6.87232
7.03695
7.21598
7.40809
7.60752
7.80591
7.98984
8.13537
8.22354
8.26447
8.28948
9.08982
9.10227
9.0636
8.94859
8.75691
8.47957
8.09593
7.60873
7.05887
6.49836
5.96507
5.48248
5.06025
4.70013
4.40283
4.16584
3.98477
3.8545
3.76822
3.71774
3.69701
3.70232
3.73201
3.77838
3.8239
3.86728
3.90816
3.94637
3.98172
4.01395
4.04275
4.06783
4.0889
4.10575
4.11835
4.12682
4.13153
4.13302
4.13206
4.12956
4.12652
4.12391
4.12257
4.12321
4.12635
4.13238
4.14159
4.15424
4.17062
4.19107
4.21598
4.24611
4.28464
4.33158
4.38456
4.44337
4.5077
4.57712
4.65107
4.72886
4.80978
4.89309
4.97803
5.06391
5.15007
5.23592
5.32092
5.40459
5.48651
5.56629
5.64357
5.71802
5.78932
5.85712
5.92107
5.98079
6.03628
6.10955
6.20671
6.32289
6.45337
6.59415
6.74216
6.8934
7.04484
7.19476
7.34233
7.4881
7.63504
7.7861
7.94407
8.11106
8.28555
8.46273
8.63594
8.79471
8.92011
8.99738
9.0358
9.05978
9.9012
9.91342
9.88564
9.79898
9.66049
9.47888
9.24928
8.96472
8.6284
8.25181
7.84865
7.43499
7.02572
6.63346
6.27197
5.95239
5.68152
5.46323
5.29793
5.18166
5.11057
5.08182
5.09353
5.13302
5.17258
5.21068
5.24704
5.28145
5.31378
5.34387
5.37159
5.39682
5.41949
5.43961
5.45728
5.47268
5.48609
5.49788
5.50845
5.5183
5.52796
5.53799
5.54897
5.56148
5.57609
5.59338
5.61389
5.63823
5.66698
5.7008
5.74093
5.78956
5.84357
5.90143
5.963
6.02806
6.0963
6.16732
6.24066
6.3158
6.39222
6.46934
6.54663
6.62355
6.6996
6.77431
6.84726
6.91806
6.98635
7.0518
7.11411
7.173
7.22819
7.2794
7.32636
7.36875
7.40675
7.4591
7.5316
7.62081
7.72323
7.83572
7.9557
8.07975
8.20517
8.33038
8.45448
8.5777
8.70209
8.82962
8.96211
9.10088
9.24455
9.3893
9.52992
9.65826
9.75945
9.82202
9.85453
9.87538
10.7619
10.767
10.7379
10.6607
10.5457
10.4067
10.2477
10.0674
9.86515
9.64044
9.39239
9.12257
8.83452
8.53364
8.23026
7.93703
7.66616
7.42914
7.23472
7.08623
6.9853
6.9328
6.92889
6.95902
6.98963
7.01918
7.04752
7.07455
7.1002
7.12442
7.14718
7.16847
7.18833
7.20685
7.22418
7.24052
7.25613
7.27133
7.28647
7.30196
7.31823
7.33573
7.35492
7.37627
7.40024
7.42731
7.45795
7.49261
7.53196
7.57735
7.62851
7.68231
7.73862
7.79729
7.85808
7.92072
7.9849
8.05025
8.11635
8.18278
8.24909
8.31483
8.37954
8.4428
8.50419
8.56333
8.61986
8.67347
8.72385
8.77075
8.81393
8.85317
8.88827
8.91905
8.94533
8.96691
8.98403
9.01105
9.05279
9.10722
9.17218
9.24572
9.32618
9.41115
9.4987
9.58763
9.67724
9.76758
9.8601
9.95609
10.0567
10.1627
10.2728
10.3837
10.4912
10.5888
10.6651
10.7111
10.7336
10.7454
11.5905
11.5917
11.5605
11.4848
11.3765
11.2517
11.1174
10.9765
10.8302
10.6777
10.5163
10.3437
10.1585
9.96043
9.75301
9.54288
9.33845
9.14983
8.98693
8.8562
8.76269
8.71017
8.70085
8.72238
8.74445
8.76571
8.78612
8.80563
8.82425
8.84199
8.85888
8.875
8.89043
8.90533
8.91985
8.9342
8.94863
8.96341
8.97884
8.99522
9.01289
9.03218
9.05342
9.07694
9.10307
9.13213
9.16451
9.201
9.24196
9.28571
9.33143
9.37901
9.4283
9.47913
9.53128
9.58449
9.63845
9.69286
9.74734
9.80153
9.85504
9.90749
9.95848
10.0076
10.0546
10.099
10.1406
10.1791
10.2141
10.2455
10.2731
10.2966
10.3161
10.3312
10.3419
10.3482
10.3502
10.3593
10.3795
10.4097
10.4486
10.495
10.5481
10.606
10.6671
10.7305
10.7955
10.8618
10.9303
11.0018
11.0766
11.155
11.2353
11.3148
11.3904
11.4584
11.5129
11.5489
11.569
11.5779
12.18
12.1978
12.1899
12.1441
12.0671
11.9718
11.8659
11.7543
11.6403
11.525
11.4072
11.2854
11.1581
11.0244
10.8851
10.7435
10.6039
10.4726
10.3567
10.2614
10.1916
10.151
10.1422
10.1564
10.171
10.1848
10.1981
10.2106
10.2227
10.2341
10.2452
10.2559
10.2663
10.2767
10.2871
10.2978
10.3089
10.3207
10.3334
10.3472
10.3623
10.379
10.3975
10.4181
10.441
10.4669
10.496
10.5277
10.5612
10.5964
10.6333
10.6718
10.7117
10.7529
10.7951
10.8381
10.8816
10.9253
10.969
11.0123
11.0549
11.0963
11.1363
11.1746
11.2108
11.2446
11.2757
11.3038
11.3288
11.3504
11.3683
11.3825
11.3929
11.3993
11.4017
11.4001
11.3947
11.3956
11.4067
11.427
11.4553
11.4904
11.531
11.5752
11.6211
11.6674
11.7132
11.7579
11.8016
11.8444
11.8857
11.9245
11.9591
11.988
12.0115
12.0325
12.0579
12.0922
12.1267
12.1528
12.1714
12.2359
12.293
12.3321
12.3464
12.3371
12.308
12.2635
12.2083
12.1454
12.0761
12.001
11.9201
11.8337
11.7428
11.6498
11.5577
11.4707
11.3935
11.3299
11.2833
11.2568
11.2526
11.2647
11.2768
11.2883
11.2992
11.3096
11.3194
11.3289
11.338
11.3469
11.3556
11.3644
11.3734
11.3828
11.3926
11.4031
11.4145
11.427
11.4408
11.4562
11.4734
11.493
11.5152
11.5395
11.5656
11.5934
11.623
11.6541
11.6869
11.721
11.7565
11.7931
11.8307
11.8689
11.9075
11.9464
11.9851
12.0234
12.0609
12.0974
12.1325
12.1659
12.1972
12.2263
12.2529
12.2766
12.2973
12.3147
12.3288
12.3395
12.3466
12.3501
12.35
12.3464
12.3396
12.3375
12.3428
12.3538
12.3686
12.3848
12.4
12.4116
12.4176
12.4169
12.4089
12.3937
12.3708
12.3391
12.2973
12.2429
12.1755
12.0982
12.0183
11.9515
11.9271
11.9662
12.0355
12.1045
11.0014
11.1359
11.2983
11.4856
11.6712
11.8349
11.9695
12.0743
12.1521
12.2065
12.2412
12.259
12.2621
12.2522
12.2315
12.2027
12.1688
12.1337
12.1012
12.0748
12.0575
12.0521
12.0607
12.0799
12.0987
12.1167
12.1338
12.1503
12.1662
12.1815
12.1963
12.2109
12.2252
12.2395
12.2538
12.2685
12.2835
12.2992
12.3158
12.3336
12.3528
12.3737
12.3964
12.4205
12.446
12.4728
12.501
12.5305
12.5613
12.5933
12.6264
12.6604
12.6952
12.7305
12.7662
12.802
12.8375
12.8726
12.9068
12.9398
12.9713
13.0009
13.0284
13.0534
13.0757
13.095
13.1113
13.1244
13.1343
13.1411
13.145
13.146
13.1446
13.1409
13.1355
13.1287
13.1205
13.1069
13.0846
13.0515
13.0048
12.9418
12.8602
12.7598
12.642
12.5092
12.3644
12.21
12.0457
11.87
11.681
11.4759
11.258
11.0373
10.8297
10.6629
10.5869
10.6372
10.7508
10.8784
8.594
8.76859
9.0039
9.31179
9.65757
10.0043
10.3326
10.633
10.9005
11.1355
11.3404
11.518
11.6707
11.8007
11.9096
11.9993
12.0722
12.1315
12.1803
12.2223
12.2608
12.2985
12.3379
12.3793
12.4196
12.4587
12.4967
12.5335
12.5694
12.6043
12.6384
12.6719
12.7047
12.737
12.769
12.8006
12.8322
12.8636
12.895
12.9265
12.9581
12.9895
13.0208
13.0521
13.0832
13.114
13.1444
13.1743
13.2035
13.2317
13.2587
13.2842
13.3077
13.329
13.3475
13.3629
13.3746
13.3823
13.3854
13.3837
13.3767
13.3643
13.3463
13.3227
13.2938
13.2597
13.2212
13.1788
13.1335
13.0863
13.0384
12.991
12.9456
12.9036
12.8663
12.8351
12.8095
12.7523
12.6484
12.4996
12.3088
12.0799
11.818
11.5328
11.2348
10.9325
10.6332
10.341
10.0538
9.76887
9.48282
9.19263
8.90296
8.62605
8.37841
8.18712
8.10238
8.16032
8.28946
8.44371
5.86926
6.02034
6.23541
6.53503
6.8942
7.27986
7.6724
8.05923
8.43091
8.78314
9.11558
9.42837
9.72184
9.99619
10.2501
10.482
10.691
10.8764
11.0383
11.1783
11.298
11.3991
11.483
11.5548
11.6246
11.6927
11.759
11.8234
11.8857
11.9462
12.0049
12.0616
12.1165
12.1694
12.2204
12.2693
12.3161
12.3607
12.4028
12.4423
12.4789
12.5122
12.5421
12.568
12.5896
12.6065
12.6181
12.6239
12.6235
12.6161
12.6011
12.5781
12.5463
12.5053
12.4545
12.3935
12.3221
12.2401
12.1477
12.045
11.9326
11.8113
11.6821
11.5463
11.4054
11.2611
11.1152
10.9699
10.8271
10.6889
10.5576
10.4351
10.3236
10.2248
10.1407
10.0728
10.02
9.92068
9.7547
9.53269
9.26709
8.9704
8.65427
8.33342
8.01958
7.72018
7.43984
7.17944
6.93439
6.70031
6.47293
6.24876
6.03065
5.82701
5.64882
5.51452
5.45963
5.51091
5.61515
5.74338
3.72628
3.82675
3.97407
4.18611
4.44914
4.7421
5.0523
5.37107
5.69095
6.0079
6.32111
6.63014
6.93467
7.23419
7.52596
7.80615
8.07075
8.3152
8.53524
8.72854
8.89309
9.02697
9.12857
9.20457
9.27496
9.34259
9.4076
9.47021
9.53037
9.58797
9.64287
9.69488
9.74377
9.78928
9.8311
9.86886
9.90218
9.93062
9.9537
9.97091
9.98169
9.98547
9.98164
9.96961
9.94875
9.91847
9.87819
9.82739
9.7656
9.69246
9.60771
9.51124
9.4031
9.28351
9.15291
9.01194
8.86146
8.70252
8.5364
8.36451
8.18842
8.0098
7.83037
7.65186
7.47601
7.30446
7.1388
6.98047
6.83084
6.69112
6.56243
6.44577
6.34207
6.2522
6.17695
6.1171
6.07149
5.99749
5.88256
5.73572
5.56654
5.38379
5.19485
5.00822
4.83004
4.66361
4.5106
4.3706
4.24025
4.11644
3.99628
3.87739
3.76112
3.65206
3.55643
3.48496
3.45884
3.4933
3.5604
3.64402
2.32651
2.38509
2.47265
2.60087
2.7623
2.94472
3.14089
3.3459
3.55531
3.76676
3.97999
4.19497
4.41178
4.63031
4.84859
5.06345
5.27107
5.46663
5.64496
5.80225
5.93478
6.03889
6.11143
6.15354
6.19153
6.22684
6.25949
6.28946
6.31669
6.34105
6.36241
6.38059
6.39536
6.40648
6.41367
6.41662
6.415
6.40846
6.39663
6.37914
6.35562
6.32572
6.28911
6.2455
6.19467
6.13643
6.0707
5.99749
5.91691
5.82918
5.73463
5.63373
5.52707
5.41531
5.29926
5.17978
5.05781
4.93431
4.81027
4.68669
4.56451
4.44465
4.32795
4.21518
4.10704
4.00413
3.90698
3.81602
3.73163
3.65412
3.58377
3.52082
3.4655
3.41805
3.37875
3.34789
3.32502
3.29107
3.24039
3.17683
3.1044
3.02664
2.94644
2.86726
2.79158
2.72076
2.65546
2.59547
2.53916
2.485
2.4315
2.37738
2.32321
2.27128
2.22485
2.18981
2.17802
2.19221
2.23075
2.27909
1.47676
1.50847
1.55711
1.6295
1.7213
1.8254
1.93762
2.05513
2.17541
2.29713
2.42022
2.54478
2.67094
2.79875
2.92707
3.05395
3.17691
3.29271
3.39773
3.48912
3.56406
3.61976
3.65387
3.66524
3.67359
3.6798
3.68395
3.68605
3.68612
3.68414
3.68007
3.67385
3.66541
3.65468
3.64154
3.6259
3.60765
3.58668
3.56287
3.53613
3.50638
3.47353
3.43756
3.39845
3.35623
3.31096
3.26275
3.21176
3.15819
3.10228
3.04433
2.98464
2.92359
2.86156
2.79893
2.73612
2.67352
2.61154
2.55056
2.49093
2.43298
2.377
2.32326
2.27198
2.22336
2.17755
2.13469
2.09488
2.0582
2.02472
1.99449
1.96758
1.94404
1.92396
1.90745
1.89469
1.88561
1.87263
1.85338
1.8292
1.80152
1.77158
1.7404
1.70923
1.67904
1.65035
1.62345
1.5983
1.5742
1.55047
1.52641
1.5014
1.47563
1.45016
1.42659
1.40796
1.40065
1.40626
1.42607
1.45163
0.970862
0.987649
1.01406
1.05387
1.10451
1.16183
1.22334
1.28739
1.35252
1.41796
1.48367
1.54971
1.61614
1.683
1.74963
1.81495
1.87756
1.93564
1.98717
2.0306
2.06435
2.08695
2.097
2.09299
2.08715
2.08003
2.07176
2.06243
2.05213
2.0409
2.0288
2.01585
2.0021
1.98753
1.97217
1.956
1.93902
1.92122
1.90258
1.88311
1.8628
1.84165
1.81967
1.7969
1.77335
1.74909
1.72418
1.69868
1.67268
1.64629
1.61961
1.59277
1.56587
1.53906
1.51246
1.4862
1.4604
1.43518
1.41066
1.38694
1.3641
1.34225
1.32143
1.30173
1.28317
1.26582
1.24969
1.2348
1.22118
1.20883
1.19777
1.18799
1.17952
1.17239
1.16665
1.16238
1.15963
1.15552
1.14903
1.14057
1.13055
1.11935
1.10725
1.09469
1.08203
1.06948
1.05718
1.04516
1.03322
1.0211
1.00856
0.99531
0.981417
0.96731
0.953681
0.941962
0.935129
0.935659
0.944927
0.957902
0.682437
0.689955
0.702319
0.721769
0.747037
0.77583
0.806727
0.838744
0.871013
0.903062
0.934832
0.966323
0.997562
1.02854
1.05892
1.08809
1.11532
1.13969
1.16017
1.17603
1.18656
1.1911
1.18761
1.17776
1.16737
1.1568
1.14613
1.13546
1.12484
1.11429
1.10385
1.09353
1.08333
1.07326
1.06329
1.05342
1.04363
1.03391
1.02425
1.01462
1.00501
0.995423
0.985837
0.976253
0.966672
0.957098
0.947541
0.938015
0.928536
0.919128
0.909815
0.900625
0.891588
0.882738
0.874107
0.865729
0.857638
0.849865
0.842442
0.835397
0.828756
0.822542
0.816774
0.811469
0.806637
0.802288
0.798425
0.795049
0.792159
0.789748
0.78781
0.786335
0.785317
0.784761
0.784678
0.785088
0.786005
0.786437
0.785934
0.784495
0.782108
0.778761
0.774472
0.769375
0.763622
0.757332
0.750621
0.743586
0.736243
0.728574
0.720526
0.711999
0.70298
0.693608
0.684166
0.675401
0.668407
0.666974
0.670705
0.676636
0.494589
0.493191
0.494144
0.49912
0.507692
0.518541
0.530715
0.543515
0.556339
0.568846
0.580968
0.592692
0.604041
0.615029
0.625492
0.635147
0.643649
0.650566
0.655458
0.65806
0.658176
0.655574
0.649474
0.642238
0.635472
0.629235
0.623483
0.618167
0.613247
0.608686
0.604449
0.600506
0.596829
0.593392
0.590175
0.587156
0.584317
0.581642
0.579117
0.576729
0.574467
0.572323
0.570288
0.568359
0.566532
0.564806
0.563182
0.561663
0.560252
0.558958
0.557787
0.556749
0.555856
0.555119
0.554552
0.554168
0.553981
0.554004
0.554252
0.554737
0.555471
0.556463
0.557723
0.559257
0.561068
0.563159
0.565527
0.568169
0.571076
0.574239
0.577642
0.58127
0.585103
0.589124
0.593382
0.597754
0.602061
0.605897
0.609099
0.611476
0.612822
0.612971
0.611842
0.609529
0.606211
0.601932
0.596733
0.590719
0.583955
0.57648
0.568279
0.559251
0.549309
0.538594
0.527437
0.516662
0.507389
0.501499
0.498327
0.496537
0.268122
0.265581
0.264778
0.266821
0.271362
0.277333
0.283943
0.290702
0.297274
0.303499
0.30938
0.314968
0.320323
0.325499
0.330458
0.3351
0.339301
0.342907
0.345779
0.347884
0.349267
0.349746
0.349643
0.348895
0.348305
0.347931
0.347741
0.347705
0.347796
0.347996
0.34829
0.348665
0.349109
0.349614
0.350173
0.350779
0.351427
0.352114
0.352838
0.353598
0.354395
0.355231
0.356109
0.357033
0.35801
0.359047
0.360151
0.361333
0.362601
0.363967
0.365443
0.36704
0.368772
0.370651
0.372691
0.374903
0.3773
0.379893
0.382692
0.385706
0.388941
0.392402
0.396092
0.400009
0.40415
0.408506
0.413066
0.417814
0.422731
0.427794
0.432977
0.438251
0.443583
0.448925
0.454647
0.460365
0.465331
0.46914
0.470821
0.469953
0.467041
0.462413
0.456172
0.448644
0.440346
0.431092
0.420351
0.408636
0.396179
0.383079
0.3694
0.355073
0.340115
0.325152
0.310755
0.297694
0.287133
0.279399
0.274452
0.271165
0.0552073
0.0553299
0.0559664
0.0574748
0.0598876
0.0629391
0.0663764
0.0700501
0.0738514
0.077704
0.0815847
0.0855016
0.0894668
0.093492
0.097565
0.101633
0.105616
0.109409
0.11288
0.115907
0.118378
0.120185
0.121235
0.121591
0.121643
0.121684
0.121723
0.121759
0.121792
0.121823
0.121852
0.12188
0.121905
0.12193
0.121953
0.121975
0.121997
0.122019
0.122041
0.122063
0.122085
0.122108
0.122132
0.122157
0.122183
0.12221
0.122238
0.122267
0.122298
0.122329
0.122361
0.122393
0.122426
0.122459
0.122493
0.122525
0.122558
0.122589
0.12262
0.122649
0.122677
0.122703
0.122728
0.122751
0.122772
0.122791
0.122808
0.122823
0.122836
0.122848
0.122857
0.122865
0.122871
0.122876
0.122878
0.122878
0.122861
0.122525
0.121473
0.119644
0.117132
0.114048
0.110502
0.106623
0.102545
0.0983791
0.0942084
0.0900891
0.086034
0.0820321
0.0780723
0.0741462
0.0702785
0.0665469
0.0630616
0.0599733
0.0575344
0.0560078
0.0553563
0.0552166
)
;

boundaryField
{
    inlet
    {
        type            cyclic;
    }
    outlet
    {
        type            cyclic;
    }
    topWall
    {
        type            calculated;
        value           nonuniform List<scalar> 
100
(
0.0552073
0.0553299
0.0559664
0.0574748
0.0598876
0.0629391
0.0663764
0.0700501
0.0738514
0.077704
0.0815847
0.0855016
0.0894668
0.093492
0.097565
0.101633
0.105616
0.109409
0.11288
0.115907
0.118378
0.120185
0.121235
0.121591
0.121643
0.121684
0.121723
0.121759
0.121792
0.121823
0.121852
0.12188
0.121905
0.12193
0.121953
0.121975
0.121997
0.122019
0.122041
0.122063
0.122085
0.122108
0.122132
0.122157
0.122183
0.12221
0.122238
0.122267
0.122298
0.122329
0.122361
0.122393
0.122426
0.122459
0.122493
0.122525
0.122558
0.122589
0.12262
0.122649
0.122677
0.122703
0.122728
0.122751
0.122772
0.122791
0.122808
0.122823
0.122836
0.122848
0.122857
0.122865
0.122871
0.122876
0.122878
0.122878
0.122861
0.122525
0.121473
0.119644
0.117132
0.114048
0.110502
0.106623
0.102545
0.0983791
0.0942084
0.0900891
0.086034
0.0820321
0.0780723
0.0741462
0.0702785
0.0665469
0.0630616
0.0599733
0.0575344
0.0560078
0.0553563
0.0552166
)
;
    }
    bottomWall
    {
        type            calculated;
        value           nonuniform List<scalar> 
100
(
0.0549081
0.0550006
0.0536775
0.0487491
0.0431439
0.0404471
0.0401119
0.0415853
0.0447464
0.0487445
0.05268
0.0564833
0.0601083
0.0636256
0.0678203
0.0731728
0.0798426
0.0879594
0.0970957
0.106027
0.113931
0.11989
0.122938
0.123027
0.123
0.122999
0.122996
0.122992
0.122987
0.122981
0.122977
0.122974
0.122971
0.122967
0.122964
0.122961
0.122957
0.122951
0.122945
0.122943
0.122942
0.122941
0.122948
0.122961
0.122976
0.122989
0.122995
0.122984
0.122938
0.122863
0.122762
0.122641
0.122505
0.122362
0.122221
0.122086
0.121966
0.121865
0.121786
0.12173
0.121696
0.121684
0.121689
0.121711
0.121748
0.121797
0.121853
0.121912
0.121971
0.122024
0.122067
0.122098
0.122113
0.122118
0.122132
0.122192
0.122346
0.122394
0.119439
0.113538
0.105682
0.0968124
0.0877193
0.0796693
0.0730513
0.0677425
0.0635773
0.0601022
0.05647
0.052692
0.0487453
0.0447096
0.041535
0.0399741
0.040198
0.0426141
0.0476791
0.0523236
0.0539487
0.0545216
)
;
    }
    defaultFaces
    {
        type            empty;
    }
}


// ************************************************************************* //
