/*--------------------------------*- C++ -*----------------------------------*\
| =========                 |                                                 |
| \\      /  F ield         | OpenFOAM: The Open Source CFD Toolbox           |
|  \\    /   O peration     | Version:  v1912                                 |
|   \\  /    A nd           | Website:  www.openfoam.com                      |
|    \\/     M anipulation  |                                                 |
\*---------------------------------------------------------------------------*/
FoamFile
{
    version     2.0;
    format      ascii;
    class       volVectorField;
    location    "10000";
    object      U;
}
// * * * * * * * * * * * * * * * * * * * * * * * * * * * * * * * * * * * * * //

dimensions      [0 1 -1 0 0 0 0];


internalField   nonuniform List<vector> 
3000
(
(0.219939 0.00206555 -3.80969e-22)
(0.195291 -0.0109619 -1.72971e-20)
(0.147314 -0.0258579 0)
(-0.00958043 -0.00516181 1.4727e-18)
(-0.105092 0.0415615 -1.00385e-17)
(-0.0953182 0.0545142 -1.53196e-21)
(-0.0643767 0.0432319 -1.86858e-17)
(-0.0453051 0.0325922 -1.17094e-20)
(-0.0339333 0.024773 5.06123e-17)
(-0.0272214 0.0195599 -2.80571e-17)
(-0.0223945 0.0157584 6.07857e-17)
(-0.0187217 0.0131037 -3.2611e-17)
(-0.0180885 0.0121734 -3.42578e-17)
(-0.016532 0.0108627 -1.40772e-19)
(-0.0137723 0.0088659 -1.73292e-21)
(-0.0102577 0.00637802 4.04321e-17)
(-0.00577289 0.0035307 3.40324e-19)
(-0.00097415 0.000834186 -3.65154e-19)
(0.00368275 -0.0012501 -2.42024e-17)
(0.00757568 -0.00244631 0)
(0.0105556 -0.00283931 2.43944e-17)
(0.013313 -0.00258966 3.8403e-19)
(0.0159286 -0.0017498 -6.88999e-18)
(0.0150432 -0.000628952 7.62519e-19)
(0.0113057 -0.000364615 3.86981e-19)
(0.00625769 -2.53503e-05 -4.05184e-19)
(-0.00188945 0.000376137 1.93136e-19)
(-0.0118221 0.00073785 -1.74062e-19)
(-0.0230096 0.00101198 0)
(-0.0344622 0.00117571 0)
(-0.0452442 0.00123559 1.31356e-19)
(-0.0546356 0.00121664 -1.24104e-19)
(-0.0622024 0.00115061 1.22541e-19)
(-0.0677816 0.00106459 3.00357e-21)
(-0.071411 0.000974781 -1.20479e-19)
(-0.0732323 0.000883479 -1.27913e-19)
(-0.0734102 0.000777228 1.27913e-19)
(-0.0716196 0.000640894 0)
(-0.0675009 0.000463944 -7.34052e-20)
(-0.0610177 0.000219618 7.57826e-20)
(-0.0522689 -0.000122074 -8.49853e-20)
(-0.041615 -0.000569006 -2.27734e-21)
(-0.0297643 -0.0010828 1.01746e-19)
(-0.0172852 -0.00153484 -5.87951e-20)
(-0.00371121 -0.00160213 6.33252e-20)
(0.0090159 -0.00125603 0)
(0.0188153 -0.000789184 0)
(0.0251686 -0.000372943 0)
(0.0284679 3.00287e-06 0)
(0.0303945 0.000134157 0)
(0.0333336 -0.000196334 0)
(0.036612 -0.000469805 0)
(0.0386215 -0.000447945 0)
(0.0389866 -0.000393323 0)
(0.0402763 -0.000692472 0)
(0.0410077 -0.00103564 0)
(0.0389564 -0.000939574 0)
(0.0339016 -0.000496619 0)
(0.0251891 0.0001696 0)
(0.0130409 0.00087379 0)
(-0.00561225 0.00146613 8.43804e-20)
(-0.0253936 0.00183315 -3.79729e-21)
(-0.0470361 0.00210847 -1.62378e-19)
(-0.0697162 0.00230674 1.78783e-19)
(-0.0929057 0.00244842 -7.65075e-20)
(-0.116213 0.00255253 0)
(-0.139321 0.00262686 5.50136e-20)
(-0.16192 0.00266816 -3.55578e-16)
(-0.183667 0.00266831 -3.34119e-16)
(-0.204183 0.0026255 4.45362e-20)
(-0.223062 0.00255057 2.12613e-21)
(-0.239906 0.00246207 -4.22951e-20)
(-0.254373 0.00235753 0)
(-0.266002 0.00215836 0)
(-0.273077 0.00161609 1.20143e-19)
(-0.270866 -0.000185925 -1.20143e-19)
(-0.252535 -0.00615445 0)
(-0.219396 -0.0206824 -2.99965e-18)
(-0.195557 -0.0359484 0)
(-0.182848 -0.0500196 1.54866e-17)
(-0.175282 -0.0631962 0)
(-0.170133 -0.0750049 0)
(-0.165852 -0.0843664 -3.79106e-17)
(-0.161416 -0.0899615 -8.14103e-17)
(-0.153795 -0.0904645 0)
(-0.141011 -0.0851464 0)
(-0.12269 -0.0743709 0)
(-0.0991089 -0.0593662 0)
(-0.0709136 -0.0415672 1.5119e-19)
(-0.0382568 -0.0212218 -1.71703e-19)
(0.000629318 0.0036769 1.95041e-16)
(0.0413554 0.0304861 0)
(0.0907513 0.0626898 3.1995e-20)
(0.158602 0.102785 -3.86687e-19)
(0.252321 0.147512 3.5029e-17)
(0.373647 0.182756 4.84106e-19)
(0.484399 0.172287 -1.2185e-21)
(0.51073 0.109185 1.23449e-21)
(0.43352 0.0454096 0)
(0.305612 0.0125573 0)
(0.536154 0.0160806 1.53773e-22)
(0.502556 -0.00870332 -3.38966e-20)
(0.41757 -0.04043 8.40124e-23)
(0.249856 -0.0434217 0)
(-0.029282 0.0402304 7.92e-18)
(-0.155545 0.107961 -3.11244e-21)
(-0.129582 0.0959944 1.69404e-20)
(-0.100842 0.0781451 2.02624e-17)
(-0.0805238 0.0631124 -2.47604e-17)
(-0.06697 0.0516509 1.19522e-19)
(-0.0573999 0.0426654 -3.18924e-17)
(-0.0490138 0.036768 6.66383e-20)
(-0.0457657 0.0337309 1.51055e-19)
(-0.0423315 0.0298566 -1.54589e-19)
(-0.0371965 0.0246587 -4.18226e-17)
(-0.0311243 0.0184037 -7.04808e-19)
(-0.023523 0.0115224 4.97308e-17)
(-0.0151778 0.0050164 -5.60659e-17)
(-0.00643957 -0.000287455 3.27756e-17)
(0.00237261 -0.00389286 5.71856e-19)
(0.00935518 -0.00540581 -3.48826e-17)
(0.0151081 -0.00499726 -1.81252e-17)
(0.0177574 -0.00217661 9.10746e-18)
(0.00611927 0.00198112 -4.96905e-19)
(-0.0140012 0.00339668 0)
(-0.0343267 0.00477505 0)
(-0.0556422 0.00574407 2.46823e-19)
(-0.0764705 0.00619673 -2.12718e-19)
(-0.0959265 0.00615169 0)
(-0.113186 0.00568999 0)
(-0.127628 0.00493282 -1.61898e-19)
(-0.138871 0.00400705 -1.65011e-21)
(-0.146777 0.00302148 1.55496e-19)
(-0.151399 0.00204827 -8.11696e-20)
(-0.152919 0.00112516 8.23452e-20)
(-0.151604 0.000244581 0)
(-0.147039 -0.000592792 0)
(-0.13948 -0.00139674 1.00211e-19)
(-0.129234 -0.00221632 -2.12876e-19)
(-0.116489 -0.00312168 2.33168e-19)
(-0.10157 -0.00417112 -2.58282e-19)
(-0.0850267 -0.00537017 2.16306e-19)
(-0.0675943 -0.00663218 1.36923e-21)
(-0.0499875 -0.00770603 -9.50356e-20)
(-0.0326614 -0.00815473 0)
(-0.0133969 -0.00747514 0)
(0.00612993 -0.00579718 0)
(0.0208824 -0.0042293 3.15828e-20)
(0.0316581 -0.00284666 -1.49706e-20)
(0.0403261 -0.00213735 -1.39233e-20)
(0.0487386 -0.00278282 1.28374e-20)
(0.0526103 -0.00307604 -1.25941e-20)
(0.0532026 -0.00240575 0)
(0.0481027 -0.00105691 0)
(0.0407185 0.000421726 0)
(0.0168728 0.00237429 0)
(-0.0236209 0.00480872 0)
(-0.0623863 0.00692698 0)
(-0.101165 0.00876582 -8.90655e-20)
(-0.139411 0.0101364 7.27605e-20)
(-0.177164 0.0109512 0)
(-0.213543 0.0113477 0)
(-0.248151 0.0114851 -3.93872e-20)
(-0.280658 0.0114155 7.01489e-20)
(-0.310827 0.0111902 -1.4979e-21)
(-0.338478 0.0108408 -1.12828e-21)
(-0.363453 0.0103749 -5.09379e-20)
(-0.385575 0.00978041 -2.33567e-20)
(-0.404629 0.00903245 4.59081e-20)
(-0.420355 0.00810159 0)
(-0.432472 0.0069577 0)
(-0.44068 0.00556781 -5.09096e-20)
(-0.444683 0.00384043 1.07084e-19)
(-0.444045 0.0015442 -5.6844e-20)
(-0.437503 -0.00183003 0)
(-0.421781 -0.00785426 -8.7503e-20)
(-0.395389 -0.0215419 8.6858e-20)
(-0.367414 -0.0503412 0)
(-0.345847 -0.0821108 0)
(-0.328204 -0.111044 0)
(-0.31057 -0.136152 -1.63367e-19)
(-0.291491 -0.156216 1.72276e-19)
(-0.270405 -0.169651 -2.06803e-19)
(-0.246952 -0.174227 2.9957e-20)
(-0.219974 -0.169157 -3.40012e-17)
(-0.188854 -0.154702 -3.24642e-19)
(-0.153499 -0.132078 3.64622e-19)
(-0.11364 -0.10349 0)
(-0.0684525 -0.0708969 7.68449e-17)
(-0.0138754 -0.030929 0)
(0.0448216 0.0160723 4.23505e-20)
(0.100996 0.0630211 0)
(0.17076 0.11796 0)
(0.259743 0.178927 -3.56402e-17)
(0.373578 0.238097 -2.41358e-17)
(0.512292 0.276246 6.39028e-19)
(0.65069 0.257302 2.77572e-18)
(0.717145 0.168791 2.29346e-19)
(0.678737 0.0784193 0)
(0.591738 0.032963 0)
(0.678586 0.0174109 0)
(0.653843 -0.00881615 2.30971e-20)
(0.583393 -0.0470947 1.69072e-19)
(0.430821 -0.0650357 0)
(0.211097 -0.0247543 0)
(-0.0905815 0.0853918 -1.12368e-17)
(-0.157677 0.115 1.53642e-17)
(-0.135247 0.0992306 -1.61221e-19)
(-0.113798 0.0846019 0)
(-0.097868 0.0724118 2.18674e-17)
(-0.0864602 0.0616753 2.41525e-17)
(-0.0754541 0.0549522 2.78764e-17)
(-0.0699604 0.0505865 0)
(-0.065507 0.0452162 -3.1417e-17)
(-0.0597383 0.0385848 3.28124e-17)
(-0.0535153 0.0307491 0)
(-0.0460449 0.0223373 -3.56629e-17)
(-0.0379954 0.0142926 -2.02126e-20)
(-0.029608 0.00749101 -4.49886e-17)
(-0.0212691 0.00271307 2.54816e-17)
(-0.0135017 0.000393244 5.85372e-17)
(-0.011701 0.00214689 0)
(-0.0231911 0.00707825 -4.63611e-18)
(-0.0441353 0.0101914 -4.6349e-19)
(-0.0694508 0.0114898 3.73215e-19)
(-0.0929341 0.0125588 -3.18849e-19)
(-0.115413 0.0129946 1.37896e-19)
(-0.135996 0.0127191 -2.50907e-19)
(-0.15411 0.0117853 1.11763e-21)
(-0.169273 0.0103135 1.11413e-19)
(-0.181163 0.00846488 0)
(-0.189639 0.00640768 -1.09458e-19)
(-0.19473 0.00429325 1.10462e-19)
(-0.196595 0.00223544 0)
(-0.195484 0.000304743 0)
(-0.191295 -0.00145258 0)
(-0.184528 -0.00302473 0)
(-0.175465 -0.00447719 0)
(-0.164282 -0.00592442 -7.73561e-20)
(-0.151193 -0.00748762 8.06702e-20)
(-0.136533 -0.00924699 -9.07453e-20)
(-0.12079 -0.0111862 9.64971e-20)
(-0.104549 -0.0131328 0)
(-0.0882692 -0.0147159 5.98213e-20)
(-0.0721988 -0.0154665 7.82626e-23)
(-0.0560267 -0.0149417 -3.40821e-22)
(-0.0401247 -0.013284 -9.83828e-20)
(-0.0258571 -0.0111784 0)
(-0.01422 -0.0089166 0)
(0.000268039 -0.00670183 0)
(0.0174828 -0.00578803 0)
(0.00134217 -0.00193762 0)
(-0.0250303 0.0035098 0)
(-0.0531934 0.00891133 0)
(-0.0845641 0.0135663 4.73636e-20)
(-0.121913 0.0169964 -8.60127e-22)
(-0.162688 0.019362 -3.01438e-20)
(-0.202667 0.021003 0)
(-0.241083 0.0221661 0)
(-0.277266 0.022807 -3.4815e-20)
(-0.310926 0.0228729 3.20503e-20)
(-0.341747 0.0224461 -2.68152e-20)
(-0.369507 0.0216704 2.53883e-20)
(-0.394119 0.0206323 0)
(-0.415571 0.0194024 -4.00118e-20)
(-0.433888 0.0180251 3.89573e-20)
(-0.449092 0.0165164 0)
(-0.461176 0.0148649 3.4635e-20)
(-0.470078 0.0130383 9.26988e-23)
(-0.475689 0.011003 8.50792e-22)
(-0.477858 0.00875032 1.75037e-21)
(-0.476412 0.00630259 -7.93629e-20)
(-0.471203 0.00362789 8.83734e-20)
(-0.462036 0.000544734 5.44498e-21)
(-0.448846 -0.00327583 -1.73878e-19)
(-0.430448 -0.009346 1.21212e-19)
(-0.406757 -0.0228113 0)
(-0.384682 -0.0504604 -1.17548e-18)
(-0.364671 -0.082989 -3.13534e-18)
(-0.344437 -0.11359 -7.34461e-18)
(-0.322243 -0.139876 0)
(-0.297509 -0.16005 9.10527e-18)
(-0.270028 -0.172392 2.10185e-17)
(-0.239689 -0.174849 2.44285e-17)
(-0.205907 -0.167276 2.90385e-17)
(-0.168395 -0.150404 -2.61916e-19)
(-0.126861 -0.125726 0)
(-0.0806872 -0.095575 4.32502e-19)
(-0.0284049 -0.0609924 -1.42477e-16)
(0.034113 -0.014862 7.12992e-17)
(0.0860258 0.0283482 -1.1222e-16)
(0.146953 0.0779412 0)
(0.22172 0.132695 -3.32152e-17)
(0.314383 0.188893 2.40585e-17)
(0.428032 0.237139 8.8224e-21)
(0.559203 0.259579 1.01444e-17)
(0.685352 0.231614 -2.14528e-18)
(0.759502 0.152831 -2.83046e-19)
(0.755214 0.0757831 -8.17472e-20)
(0.70977 0.0346381 0)
(0.736335 0.023834 0)
(0.720201 -0.00138681 5.45259e-20)
(0.672694 -0.0386653 -1.258e-19)
(0.556045 -0.0671225 -5.71501e-19)
(0.377012 -0.0528936 2.83445e-21)
(0.161075 0.00581165 5.35176e-18)
(-0.133966 0.108217 -1.41572e-17)
(-0.153733 0.10792 -1.36506e-17)
(-0.136764 0.0959777 0)
(-0.121497 0.08603 -1.69207e-17)
(-0.110714 0.0752029 -3.70367e-17)
(-0.0986367 0.0689566 0)
(-0.0920735 0.0647374 -2.32927e-17)
(-0.0878724 0.0591312 2.3925e-17)
(-0.0829204 0.0524708 3.84894e-19)
(-0.0782924 0.044516 -3.86153e-19)
(-0.0729662 0.036055 0)
(-0.067625 0.0279183 2.65262e-17)
(-0.0626438 0.0210112 1.39282e-17)
(-0.0588079 0.0164259 -1.47128e-17)
(-0.0580927 0.014881 -1.56146e-17)
(-0.0651921 0.0166095 6.39553e-18)
(-0.0775344 0.0185381 3.26666e-19)
(-0.0977661 0.0199588 1.28337e-19)
(-0.121144 0.0208231 0)
(-0.142296 0.0212022 0)
(-0.161899 0.0208089 0)
(-0.179391 0.0195732 0)
(-0.194398 0.0175644 0)
(-0.206617 0.0149211 0)
(-0.215854 0.0118273 0)
(-0.222043 0.00848933 0)
(-0.225243 0.00511207 0)
(-0.225611 0.00187245 0)
(-0.223379 -0.00111943 0)
(-0.218714 -0.00375188 0)
(-0.212098 -0.00605427 0)
(-0.203739 -0.00815313 0)
(-0.19383 -0.0102142 0)
(-0.182611 -0.0123932 0)
(-0.170416 -0.0147758 0)
(-0.157695 -0.0173084 0)
(-0.144936 -0.0197353 0)
(-0.132612 -0.0215975 0)
(-0.120907 -0.0223447 0)
(-0.109752 -0.0215242 0)
(-0.0992182 -0.0190671 0)
(-0.0901391 -0.0151605 2.71196e-20)
(-0.0849709 -0.00995692 -2.93462e-20)
(-0.0881127 -0.00364135 0)
(-0.100564 0.00327022 0)
(-0.117145 0.00979476 -2.00013e-20)
(-0.140573 0.0163242 -1.61793e-20)
(-0.16759 0.0225982 2.75769e-20)
(-0.196983 0.0279751 0)
(-0.228386 0.0317801 0)
(-0.260415 0.0339522 0)
(-0.29132 0.034966 0)
(-0.320139 0.035187 0)
(-0.346271 0.0347064 0)
(-0.369481 0.0335654 0)
(-0.389706 0.0318902 0)
(-0.406976 0.0298476 3.74013e-20)
(-0.421402 0.0275529 -3.67661e-20)
(-0.433141 0.0250856 0)
(-0.442342 0.0224903 0)
(-0.449136 0.0197715 0)
(-0.453602 0.0168884 0)
(-0.455734 0.0137642 0)
(-0.455433 0.010339 0)
(-0.452518 0.00663272 0)
(-0.446785 0.002713 0)
(-0.438105 -0.00143664 0)
(-0.427268 -0.00594094 0)
(-0.413511 -0.011261 0)
(-0.395985 -0.0187765 0)
(-0.375328 -0.0325676 -1.02428e-19)
(-0.356352 -0.0570352 1.91647e-19)
(-0.336649 -0.0863273 3.00244e-18)
(-0.315065 -0.114418 1.24135e-17)
(-0.29108 -0.138266 0)
(-0.264339 -0.155817 -5.42356e-20)
(-0.234585 -0.165354 -1.8944e-17)
(-0.201725 -0.165216 0)
(-0.165264 -0.155604 -4.34806e-19)
(-0.125166 -0.137536 4.89948e-19)
(-0.0805762 -0.112359 3.26724e-19)
(-0.0304914 -0.0816998 -5.28656e-17)
(0.0270789 -0.0429807 5.39263e-17)
(0.076244 -0.00470958 -5.38274e-21)
(0.129669 0.0388465 3.79326e-17)
(0.192708 0.0869069 3.04246e-17)
(0.269062 0.137732 2.38392e-17)
(0.361437 0.186819 -1.77557e-17)
(0.470354 0.224792 1.18574e-17)
(0.58952 0.23713 4.43528e-21)
(0.698339 0.209434 -2.21131e-21)
(0.765026 0.146823 -2.2514e-19)
(0.776339 0.0827253 6.89561e-20)
(0.754668 0.0434684 -5.76165e-22)
(0.763292 0.0263224 0)
(0.751796 0.00410988 -4.58456e-20)
(0.721208 -0.0263314 7.92153e-22)
(0.640003 -0.0564399 4.376e-19)
(0.503056 -0.0603023 0)
(0.329622 -0.0298268 -2.72742e-18)
(0.133363 0.0281061 -6.0845e-18)
(-0.146711 0.104308 2.57653e-20)
(-0.150982 0.101334 0)
(-0.13977 0.0953467 1.53688e-19)
(-0.131922 0.0857668 1.43945e-17)
(-0.120078 0.0805113 -1.66121e-17)
(-0.113336 0.0778431 1.82515e-17)
(-0.110331 0.0729443 0)
(-0.10691 0.0672213 2.89221e-19)
(-0.10469 0.0599889 -5.7078e-19)
(-0.102386 0.0522571 2.84278e-19)
(-0.100854 0.0447536 -8.59131e-18)
(-0.100598 0.0381687 8.68582e-18)
(-0.102144 0.0335027 -5.89086e-19)
(-0.10663 0.0311486 5.80363e-19)
(-0.113395 0.0300031 -8.37738e-18)
(-0.125194 0.0297431 4.06061e-19)
(-0.142528 0.029891 -4.2471e-20)
(-0.162076 0.0302711 -1.5457e-19)
(-0.17976 0.0299054 2.08251e-21)
(-0.196076 0.0286452 1.37541e-19)
(-0.210578 0.0264271 0)
(-0.22295 0.0233044 1.26336e-19)
(-0.232913 0.0194116 -1.26049e-19)
(-0.240265 0.0149591 0)
(-0.244911 0.0102187 0)
(-0.246875 0.00548361 0)
(-0.246298 0.00100981 0)
(-0.243382 -0.00302012 -1.47927e-19)
(-0.238797 -0.00647416 2.99349e-19)
(-0.232856 -0.00943104 5.87502e-21)
(-0.225787 -0.0120574 -2.42332e-19)
(-0.217812 -0.0145491 8.37558e-20)
(-0.209195 -0.0170775 -9.12826e-20)
(-0.200289 -0.0197209 9.26714e-20)
(-0.191545 -0.0223908 0)
(-0.183508 -0.0247759 -1.03201e-19)
(-0.176659 -0.0263505 1.05185e-19)
(-0.171345 -0.0264779 0)
(-0.167821 -0.024617 -5.61445e-20)
(-0.166365 -0.020564 5.82868e-20)
(-0.167405 -0.014499 0)
(-0.171465 -0.00687608 0)
(-0.178893 0.00175302 0)
(-0.187977 0.0106308 -1.29044e-20)
(-0.201619 0.0192954 1.14078e-20)
(-0.219246 0.0274095 0)
(-0.239327 0.0346668 0)
(-0.260619 0.0404806 0)
(-0.282311 0.0442611 0)
(-0.303578 0.0459881 0)
(-0.323543 0.046166 0)
(-0.341574 0.045258 0)
(-0.357312 0.0435171 4.04019e-20)
(-0.370691 0.0411179 -2.20307e-21)
(-0.381823 0.0382522 -2.10602e-21)
(-0.390894 0.0351041 -3.48183e-20)
(-0.398106 0.0317947 0)
(-0.403649 0.0283934 0)
(-0.407668 0.0249314 0)
(-0.410265 0.0213909 -5.60539e-20)
(-0.411463 0.017689 1.12814e-19)
(-0.411157 0.0137122 1.39739e-23)
(-0.409077 0.00941699 -5.8548e-20)
(-0.404856 0.00486747 0)
(-0.398175 0.000129363 7.10981e-20)
(-0.389859 -0.00484905 -7.11364e-20)
(-0.379299 -0.0103928 0)
(-0.366159 -0.017 9.71995e-20)
(-0.350229 -0.0259499 -9.69188e-20)
(-0.332574 -0.0401464 2.09676e-19)
(-0.316229 -0.061776 8.32386e-19)
(-0.297131 -0.0876921 -3.22352e-19)
(-0.274778 -0.112941 -5.40538e-18)
(-0.249499 -0.134076 0)
(-0.221225 -0.148816 -7.52719e-18)
(-0.18951 -0.155667 0)
(-0.154491 -0.153397 0)
(-0.115451 -0.142384 0)
(-0.0731775 -0.124219 -5.14898e-19)
(-0.0255353 -0.0990731 6.13918e-19)
(0.0289243 -0.0655333 4.14614e-17)
(0.0749761 -0.032473 -2.77602e-19)
(0.123937 0.00562943 -3.05563e-17)
(0.178641 0.0480105 2.65343e-17)
(0.242872 0.0933372 -5.26988e-19)
(0.319569 0.139172 0)
(0.409968 0.180496 -1.25652e-17)
(0.512343 0.208706 -4.32972e-19)
(0.618785 0.213017 8.83028e-21)
(0.711499 0.186396 -9.17746e-21)
(0.768802 0.136125 2.56249e-19)
(0.785126 0.0834231 6.69436e-22)
(0.775183 0.0472961 1.79595e-21)
(0.781812 0.0290296 8.92204e-22)
(0.772531 0.00949405 -2.90975e-21)
(0.7515 -0.0142768 -3.16364e-22)
(0.696856 -0.0408528 1.77998e-21)
(0.597528 -0.0543549 0)
(0.463536 -0.0441208 1.85585e-18)
(0.306054 -0.0113845 2.88564e-18)
(0.146816 0.0274836 0)
(-0.137052 0.0974936 0)
(-0.152058 0.0932161 1.22174e-17)
(-0.150275 0.0911436 1.79889e-19)
(-0.139539 0.0884631 1.25211e-17)
(-0.132429 0.0893645 0)
(-0.131021 0.0856043 0)
(-0.128978 0.0814025 1.36294e-17)
(-0.129036 0.0750617 4.30344e-19)
(-0.129306 0.0680896 -4.28583e-19)
(-0.130728 0.061163 7.20411e-18)
(-0.133657 0.0544592 -6.73768e-18)
(-0.137846 0.0489143 0)
(-0.14318 0.0447412 0)
(-0.150247 0.0418312 2.68237e-18)
(-0.160698 0.0401119 0)
(-0.174631 0.0394196 0)
(-0.189907 0.0393753 0)
(-0.203906 0.0383858 2.20726e-19)
(-0.216906 0.0363514 -2.15293e-19)
(-0.228477 0.0331769 2.05127e-19)
(-0.238274 0.0288722 -4.06747e-19)
(-0.245967 0.0235775 2.03773e-19)
(-0.251296 0.0175819 0)
(-0.254115 0.0112924 0)
(-0.254438 0.00514172 -1.13955e-19)
(-0.252447 -0.00052583 1.15951e-19)
(-0.248795 -0.0054447 1.21766e-19)
(-0.244163 -0.00953366 4.61224e-21)
(-0.238819 -0.0129169 -1.2539e-19)
(-0.232987 -0.0157823 0)
(-0.226886 -0.0183392 1.41808e-19)
(-0.220769 -0.0207671 -2.90379e-19)
(-0.214964 -0.0231508 2.25238e-19)
(-0.209883 -0.0254122 -7.7032e-20)
(-0.205976 -0.0272661 0)
(-0.203599 -0.0282197 -8.25414e-20)
(-0.202994 -0.0276719 8.31798e-20)
(-0.204215 -0.025095 -4.24949e-20)
(-0.207109 -0.0202217 1.3967e-22)
(-0.211355 -0.0131152 6.6674e-20)
(-0.216531 -0.0041423 -2.26912e-20)
(-0.222176 0.00608297 3.16888e-25)
(-0.22955 0.0166862 -9.39166e-21)
(-0.239135 0.0269262 8.59568e-21)
(-0.250602 0.0361711 0)
(-0.263177 0.0439662 -2.82898e-20)
(-0.27605 0.0497919 7.87425e-20)
(-0.288629 0.0532452 -1.59037e-21)
(-0.300478 0.0544032 -4.66575e-20)
(-0.311227 0.0537683 0)
(-0.320612 0.0518676 0)
(-0.328535 0.0490853 -7.37108e-20)
(-0.335081 0.0457084 7.36054e-20)
(-0.340441 0.0419735 -6.56223e-20)
(-0.344817 0.0380545 6.59722e-20)
(-0.34837 0.0340436 0)
(-0.35116 0.0299792 0)
(-0.353215 0.0258606 0)
(-0.354511 0.0216279 0)
(-0.354948 0.0171471 -5.42271e-20)
(-0.354244 0.0122965 1.66741e-19)
(-0.351921 0.00708268 -1.14764e-19)
(-0.347469 0.0016091 1.26795e-19)
(-0.341219 -0.00405966 9.07549e-21)
(-0.333204 -0.010066 -2.82995e-19)
(-0.323058 -0.0167063 1.47578e-19)
(-0.31072 -0.0244163 0)
(-0.296459 -0.0342779 0)
(-0.281431 -0.0481863 0)
(-0.26725 -0.0671679 7.04721e-19)
(-0.24872 -0.089782 5.73766e-19)
(-0.225602 -0.11195 2.98265e-20)
(-0.198968 -0.130027 -3.67301e-19)
(-0.16914 -0.141709 -7.21422e-18)
(-0.135275 -0.1459 8.66266e-18)
(-0.0981847 -0.142031 6.87668e-19)
(-0.0563139 -0.129656 -7.83889e-19)
(-0.0122878 -0.111266 0)
(0.0388432 -0.0838695 -5.0054e-19)
(0.0828453 -0.0552228 2.74311e-17)
(0.12872 -0.0219651 -2.442e-17)
(0.178307 0.0152655 2.14244e-17)
(0.23386 0.0555842 -1.88013e-17)
(0.298528 0.0972324 -3.0843e-17)
(0.374345 0.137178 -4.58695e-20)
(0.46107 0.170402 9.73671e-18)
(0.555263 0.189793 -7.00918e-18)
(0.648588 0.188345 -5.34178e-21)
(0.726671 0.164141 -1.4956e-18)
(0.775368 0.124596 5.03707e-19)
(0.793121 0.0820234 0)
(0.789742 0.0499133 -1.11819e-21)
(0.79949 0.0316703 -4.25439e-21)
(0.791803 0.0142753 7.20971e-20)
(0.775819 -0.00436561 4.14696e-21)
(0.738283 -0.0255983 -1.497e-21)
(0.668345 -0.0418323 -1.97788e-21)
(0.568923 -0.043987 0)
(0.4464 -0.0304085 1.95116e-18)
(0.314768 -0.00619349 -1.05305e-20)
(0.168951 0.0270699 -8.44034e-20)
(-0.0406779 0.0695941 1.65457e-19)
(-0.156285 0.0827404 0)
(-0.150116 0.0903094 0)
(-0.143175 0.098552 0)
(-0.145423 0.0940226 3.56145e-19)
(-0.144543 0.0915248 -1.17973e-17)
(-0.146217 0.0861089 0)
(-0.147809 0.079869 -5.75161e-18)
(-0.150535 0.0737287 -3.38234e-19)
(-0.154825 0.0668394 -2.00781e-21)
(-0.159526 0.0602591 6.21374e-19)
(-0.164698 0.0548208 0)
(-0.17116 0.0509577 0)
(-0.179399 0.0485487 4.4525e-19)
(-0.189276 0.0475216 -4.0319e-19)
(-0.199681 0.0472239 -1.90305e-19)
(-0.209488 0.0458519 1.86681e-19)
(-0.218716 0.043232 -1.77462e-19)
(-0.226947 0.0391684 1.77632e-19)
(-0.233775 0.0336178 -1.73019e-19)
(-0.238769 0.0267763 1.76664e-19)
(-0.241562 0.0191014 1.81151e-19)
(-0.241968 0.0112165 2.7623e-21)
(-0.240049 0.0037227 5.05534e-21)
(-0.236143 -0.00297444 -4.17349e-19)
(-0.231586 -0.0085294 -8.01539e-21)
(-0.226638 -0.012989 -8.85492e-21)
(-0.221546 -0.0165099 2.25378e-19)
(-0.216506 -0.0192919 0)
(-0.211703 -0.0215523 0)
(-0.207341 -0.0234834 0)
(-0.203667 -0.0251962 0)
(-0.200993 -0.0266628 1.41337e-19)
(-0.199583 -0.0276734 -1.41326e-19)
(-0.199649 -0.0278231 0)
(-0.201272 -0.0265957 0)
(-0.204319 -0.0234942 7.56245e-20)
(-0.208412 -0.0181875 -7.69353e-20)
(-0.212978 -0.0106056 0)
(-0.217343 -0.00100311 0)
(-0.221838 0.00995871 5.48631e-25)
(-0.226979 0.0213738 -5.08573e-25)
(-0.232744 0.032304 0)
(-0.238977 0.0419777 0)
(-0.245348 0.0498268 -5.20885e-20)
(-0.251481 0.0553866 5.01552e-20)
(-0.257114 0.0584122 0)
(-0.262119 0.0590626 8.60415e-20)
(-0.266443 0.0578306 -8.55302e-20)
(-0.27009 0.055271 7.71703e-20)
(-0.273145 0.0518463 -7.75799e-20)
(-0.275769 0.0479189 0)
(-0.278141 0.0437616 0)
(-0.280384 0.039548 -6.30813e-20)
(-0.282488 0.0353558 6.37661e-20)
(-0.284358 0.0311854 0)
(-0.285878 0.0269502 0)
(-0.286958 0.0224543 0)
(-0.287427 0.0174522 1.10826e-19)
(-0.286854 0.0118124 -3.50875e-22)
(-0.284564 0.00557924 -1.18777e-19)
(-0.279978 -0.00108765 0)
(-0.274326 -0.00806169 1.35952e-19)
(-0.2667 -0.0154588 -2.82353e-19)
(-0.257093 -0.0234136 1.46857e-19)
(-0.24563 -0.0322527 0)
(-0.232889 -0.0427316 -1.99705e-19)
(-0.220052 -0.0559263 -2.16105e-19)
(-0.207487 -0.0724021 -5.25351e-19)
(-0.189317 -0.0918334 2.22769e-18)
(-0.165265 -0.110827 -5.21891e-18)
(-0.13715 -0.125842 -6.17346e-18)
(-0.105929 -0.134709 7.42333e-18)
(-0.0698401 -0.136377 -1.81552e-17)
(-0.0310842 -0.131333 0)
(0.0137135 -0.11714 0)
(0.0574013 -0.09726 0)
(0.100688 -0.0730627 6.30285e-19)
(0.144334 -0.0443671 -6.10768e-19)
(0.190269 -0.0118735 1.65144e-17)
(0.240093 0.0236632 -2.98505e-17)
(0.295814 0.061046 -1.3025e-17)
(0.35986 0.0980906 1.13746e-17)
(0.433245 0.131519 8.82247e-18)
(0.514461 0.156855 2.93205e-20)
(0.599081 0.168891 4.43732e-21)
(0.679374 0.163925 -1.02217e-20)
(0.744521 0.143058 1.25898e-18)
(0.785752 0.112554 -4.16784e-19)
(0.803513 0.079144 8.05763e-20)
(0.80435 0.051544 0)
(0.818745 0.0339421 3.57155e-21)
(0.812783 0.018554 -6.06636e-20)
(0.799988 0.00356233 0)
(0.772729 -0.0127492 0)
(0.723422 -0.0277473 -2.04056e-21)
(0.651632 -0.035576 2.12248e-21)
(0.560079 -0.0337415 -1.42974e-18)
(0.456149 -0.0226434 -4.38935e-20)
(0.34446 -0.00535447 7.78846e-20)
(0.212962 0.0208917 -1.20135e-19)
(0.115952 0.0284849 1.25891e-19)
(-0.122233 0.0868236 3.71708e-19)
(-0.144201 0.0820123 9.37134e-18)
(-0.149151 0.0892892 0)
(-0.14538 0.0967654 6.11273e-19)
(-0.14825 0.0918207 7.02307e-21)
(-0.151231 0.0839327 4.10152e-18)
(-0.154247 0.0784226 4.45919e-18)
(-0.159059 0.0716332 0)
(-0.16342 0.0648425 0)
(-0.167487 0.0593128 0)
(-0.171744 0.0556449 1.7163e-18)
(-0.176432 0.0538147 0)
(-0.181312 0.0534181 0)
(-0.186169 0.0534309 0)
(-0.191327 0.052105 0)
(-0.19656 0.0490692 -3.27459e-19)
(-0.201449 0.0440109 3.33075e-19)
(-0.205407 0.0369136 3.26007e-19)
(-0.207713 0.0281844 -3.38251e-19)
(-0.207729 0.0186022 0)
(-0.205164 0.0090871 1.90453e-19)
(-0.200205 0.000395908 6.03968e-21)
(-0.194652 -0.00692817 -2.03261e-19)
(-0.188955 -0.0127442 0)
(-0.183366 -0.0172177 -2.28483e-19)
(-0.178111 -0.0205348 4.68612e-19)
(-0.173362 -0.0229097 -2.40587e-19)
(-0.169263 -0.0245699 0)
(-0.165954 -0.0257268 0)
(-0.163608 -0.0265317 1.41595e-19)
(-0.162379 -0.0270259 -1.41593e-19)
(-0.16238 -0.0270828 0)
(-0.163691 -0.0264043 0)
(-0.166236 -0.0245563 1.54448e-19)
(-0.169746 -0.021068 -2.34533e-19)
(-0.173761 -0.0155578 8.00683e-20)
(-0.177679 -0.007859 -4.13748e-20)
(-0.180796 0.00186466 3.9914e-20)
(-0.184029 0.0128958 -5.61715e-25)
(-0.186971 0.0243297 5.25119e-25)
(-0.189591 0.0352209 -3.15419e-20)
(-0.191865 0.0447626 3.006e-20)
(-0.193734 0.0523451 0)
(-0.195142 0.0575504 0)
(-0.196091 0.0602308 0)
(-0.196654 0.0605832 0)
(-0.196944 0.0590857 0)
(-0.197104 0.0563052 0)
(-0.197304 0.0527438 1.63165e-19)
(-0.197707 0.0488151 -1.6574e-19)
(-0.198426 0.0448311 -1.49245e-19)
(-0.199482 0.0409697 1.51374e-19)
(-0.200717 0.037242 0)
(-0.201959 0.033449 0)
(-0.203114 0.0291811 0)
(-0.204169 0.0239633 -1.25409e-19)
(-0.204914 0.0175819 2.55773e-19)
(-0.204687 0.0102401 -8.29524e-22)
(-0.202513 0.00232169 1.4264e-19)
(-0.198719 -0.00579952 -5.63709e-19)
(-0.193741 -0.0140186 5.8573e-19)
(-0.186874 -0.0225296 -2.99251e-19)
(-0.178084 -0.0314041 0)
(-0.167619 -0.0408644 0)
(-0.156285 -0.0513701 4.39506e-19)
(-0.145389 -0.0633995 -4.62486e-19)
(-0.133759 -0.0774776 -5.57856e-19)
(-0.115626 -0.0939043 5.36805e-19)
(-0.0905721 -0.109735 6.73079e-20)
(-0.0611438 -0.12171 7.03275e-18)
(-0.0291129 -0.128247 -1.1392e-18)
(0.00918395 -0.127487 9.50329e-18)
(0.0492117 -0.119431 2.20682e-18)
(0.0889133 -0.105414 6.8259e-18)
(0.129677 -0.0858126 4.55199e-19)
(0.171729 -0.0617616 -3.99394e-19)
(0.214848 -0.0338127 -2.42825e-17)
(0.260343 -0.00282235 -3.56151e-19)
(0.309704 0.0302075 1.05721e-17)
(0.364572 0.0637691 9.91975e-18)
(0.426563 0.0954696 -1.29251e-19)
(0.495726 0.122199 -6.86651e-18)
(0.569685 0.14043 0)
(0.643804 0.146915 0)
(0.711662 0.140414 0)
(0.765657 0.123355 -1.18399e-18)
(0.800498 0.100376 0)
(0.817432 0.0748941 -6.90589e-20)
(0.821009 0.0519729 0)
(0.840562 0.0356087 2.18871e-21)
(0.836476 0.0222925 -2.10228e-21)
(0.826323 0.00998056 -2.62756e-19)
(0.805436 -0.00260926 -4.61441e-19)
(0.769633 -0.0149758 -1.80048e-21)
(0.718063 -0.0241019 1.81777e-21)
(0.651549 -0.0279761 0)
(0.573171 -0.0256572 0)
(0.487469 -0.0185417 -1.68554e-18)
(0.390972 -0.00757248 0)
(0.300534 0.00550545 0)
(0.188252 0.0307985 0)
(0.11006 0.0319494 -7.84923e-18)
(-0.0680263 0.0699161 7.4774e-19)
(-0.123722 0.0772584 -5.54121e-19)
(-0.143705 0.0716186 5.06751e-19)
(-0.142173 0.0736258 -5.16929e-19)
(-0.139609 0.0762459 -8.56509e-18)
(-0.143522 0.0714296 1.44285e-18)
(-0.146807 0.0635358 -9.19206e-19)
(-0.148174 0.0570438 0)
(-0.148132 0.0540984 -1.66307e-18)
(-0.147574 0.0542627 0)
(-0.146687 0.055428 0)
(-0.145902 0.0558382 0)
(-0.14684 0.0541437 0)
(-0.149018 0.0499429 0)
(-0.15184 0.0430983 0)
(-0.15414 0.0339534 0)
(-0.154396 0.0233738 0)
(-0.151348 0.0125187 0)
(-0.144667 0.00244395 0)
(-0.136211 -0.0061371 0)
(-0.128649 -0.0129754 0)
(-0.12138 -0.0182767 0)
(-0.114731 -0.0221594 0)
(-0.108873 -0.0247778 0)
(-0.103931 -0.0263165 0)
(-0.100001 -0.0269813 0)
(-0.0971732 -0.0269874 0)
(-0.0955471 -0.0265349 0)
(-0.0951768 -0.0257531 0)
(-0.0961283 -0.0246384 0)
(-0.0983514 -0.0230029 0)
(-0.101585 -0.0204858 0)
(-0.105318 -0.0166296 -2.06115e-19)
(-0.108907 -0.0110599 2.10777e-19)
(-0.111793 -0.00369288 -1.09753e-19)
(-0.113913 0.00524511 1.02423e-19)
(-0.115764 0.0153822 0)
(-0.116729 0.0259179 0)
(-0.116828 0.0359865 0)
(-0.116153 0.0448044 7.57414e-20)
(-0.114826 0.0517628 -7.38989e-20)
(-0.112987 0.0564718 0)
(-0.110795 0.0588242 0)
(-0.108385 0.0590205 0)
(-0.105878 0.0575425 0)
(-0.103444 0.0549435 2.37137e-19)
(-0.101264 0.0516916 -1.40337e-20)
(-0.0994589 0.0481833 -4.63679e-19)
(-0.0980976 0.0447261 2.32001e-19)
(-0.0971947 0.0414523 0)
(-0.096741 0.038189 0)
(-0.0968449 0.0343664 0)
(-0.0977352 0.0291707 -3.8274e-19)
(-0.099372 0.0221271 3.97455e-19)
(-0.100953 0.0137114 -3.91783e-19)
(-0.100977 0.00500848 4.28154e-19)
(-0.0980178 -0.00317569 0)
(-0.0964175 -0.0111546 -4.54713e-19)
(-0.0930611 -0.0195721 4.37214e-19)
(-0.0877477 -0.0284764 0)
(-0.0804022 -0.037802 0)
(-0.0713999 -0.0475418 5.87635e-19)
(-0.0616491 -0.0578215 -5.78528e-19)
(-0.0534618 -0.068686 0)
(-0.0423076 -0.0810882 -1.49965e-18)
(-0.0239839 -0.0954555 -7.02965e-18)
(0.00186003 -0.109149 1.73535e-17)
(0.0321762 -0.118048 -8.7277e-18)
(0.0640699 -0.121025 -6.1565e-18)
(0.0985489 -0.117925 -6.30234e-18)
(0.134932 -0.108642 -5.5854e-20)
(0.17301 -0.0938851 -4.94532e-18)
(0.212414 -0.0742891 5.67451e-19)
(0.25305 -0.0507926 0)
(0.294951 -0.0241881 1.24076e-17)
(0.339194 0.00455863 5.04854e-19)
(0.387042 0.034259 -2.33276e-19)
(0.439664 0.0632589 2.14619e-19)
(0.497889 0.0892484 0)
(0.561019 0.109639 -3.59696e-20)
(0.626325 0.122039 3.8836e-18)
(0.689609 0.124866 -1.53863e-18)
(0.746062 0.118384 1.40548e-20)
(0.790618 0.105191 -6.02406e-20)
(0.819996 0.0883667 0)
(0.835543 0.0694841 2.53398e-21)
(0.840702 0.0511693 -2.43191e-21)
(0.86557 0.0363983 0)
(0.863302 0.0252388 0)
(0.855596 0.0151007 4.83418e-19)
(0.839177 0.00517521 8.28924e-19)
(0.812129 -0.00461739 4.12563e-19)
(0.774408 -0.0129561 0)
(0.726425 -0.0186636 4.57114e-19)
(0.669194 -0.0208204 -1.8361e-20)
(0.605463 -0.0195369 1.28177e-18)
(0.534793 -0.016125 0)
(0.462988 -0.00880193 -7.44996e-19)
(0.38322 0.000813072 -1.266e-19)
(0.308193 0.0105544 0)
(0.22142 0.0278847 2.0215e-19)
(0.141677 0.0376987 -2.977e-19)
(0.077156 0.0357292 -1.21765e-18)
(-0.0583921 0.0504257 1.73154e-18)
(-0.0933179 0.0523558 4.47831e-18)
(-0.112696 0.0468591 0)
(-0.116821 0.0422104 -9.62578e-19)
(-0.11025 0.0414309 9.86179e-19)
(-0.0996828 0.0443844 0)
(-0.0907086 0.0489663 0)
(-0.0839081 0.0525324 0)
(-0.0782885 0.0536037 0)
(-0.0764097 0.0518391 0)
(-0.0776135 0.0472382 -9.8656e-19)
(-0.0811003 0.0401832 1.09949e-18)
(-0.0844158 0.0313109 1.19747e-18)
(-0.0834356 0.021274 -1.48016e-18)
(-0.0735531 0.0105952 0)
(-0.0570711 0.000125658 0)
(-0.0465768 -0.00875302 0)
(-0.0367919 -0.0158771 0)
(-0.0284093 -0.0213399 1.27054e-18)
(-0.0213616 -0.0252608 -2.63707e-18)