/*--------------------------------*- C++ -*----------------------------------*\
| =========                 |                                                 |
| \\      /  F ield         | OpenFOAM: The Open Source CFD Toolbox           |
|  \\    /   O peration     | Version:  v1912                                 |
|   \\  /    A nd           | Website:  www.openfoam.com                      |
|    \\/     M anipulation  |                                                 |
\*---------------------------------------------------------------------------*/
FoamFile
{
    version     2.0;
    format      ascii;
    class       volScalarField;
    location    "5000";
    object      k;
}
// * * * * * * * * * * * * * * * * * * * * * * * * * * * * * * * * * * * * * //

dimensions      [0 2 -2 0 0 0 0];


internalField   nonuniform List<scalar> 
2500
(
0.00124973
0.00133531
0.0015344
0.00184441
0.00225082
0.00273506
0.00327867
0.00386521
0.00448089
0.0051145
0.0057571
0.00640171
0.00704303
0.00767719
0.00830158
0.00891453
0.00951519
0.0101032
0.0106787
0.011242
0.0117934
0.0123334
0.0128625
0.0133809
0.013889
0.014387
0.0148749
0.0153527
0.0158204
0.0162777
0.0167245
0.0171603
0.0175847
0.0179972
0.0183971
0.0187839
0.0191566
0.0195144
0.0198563
0.0201813
0.0204882
0.0207757
0.0210424
0.0212867
0.0215067
0.0217004
0.0218648
0.0219966
0.0220911
0.0221422
0.00133531
0.00120725
0.00123231
0.00136924
0.00159057
0.00187458
0.00220356
0.00256331
0.00294268
0.0033331
0.00372808
0.0041228
0.0045138
0.00489872
0.00527608
0.00564509
0.00600545
0.00635722
0.00670066
0.00703617
0.00736417
0.00768511
0.00799937
0.0083073
0.00860917
0.00890518
0.00919548
0.00948014
0.00975915
0.0100325
0.0102999
0.0105614
0.0108167
0.0110654
0.0113072
0.0115416
0.0117681
0.0119862
0.0121953
0.0123946
0.0125833
0.0127606
0.0129255
0.0130769
0.0132136
0.013334
0.0134365
0.0135187
0.0135777
0.0136097
0.0015344
0.00123231
0.0011334
0.00117125
0.00130475
0.0015063
0.00175605
0.00203913
0.0023442
0.00266261
0.00298781
0.00331494
0.00364052
0.00396223
0.00427859
0.00458883
0.00489268
0.00519017
0.00548156
0.00576724
0.00604759
0.00632304
0.00659394
0.00686061
0.0071233
0.0073822
0.00763744
0.00788906
0.00813707
0.0083814
0.00862191
0.00885841
0.00909065
0.00931828
0.0095409
0.00975804
0.00996912
0.0101735
0.0103706
0.0105595
0.0107393
0.010909
0.0110676
0.0112138
0.0113464
0.0114635
0.0115635
0.0116438
0.0117016
0.0117329
0.00184441
0.00136924
0.00117125
0.00115442
0.00126012
0.00145103
0.00170203
0.00199508
0.00231666
0.00265639
0.00300637
0.00336068
0.00371506
0.00406659
0.00441346
0.00475464
0.00508972
0.0054187
0.00574182
0.00605946
0.00637205
0.00668001
0.00698375
0.00728359
0.00757981
0.0078726
0.00816207
0.00844829
0.00873123
0.00901078
0.00928678
0.00955897
0.00982702
0.0100905
0.0103489
0.0106017
0.010848
0.0110872
0.0113184
0.0115405
0.0117524
0.0119528
0.0121404
0.0123137
0.012471
0.0126102
0.0127291
0.0128247
0.0128935
0.0129308
0.00225082
0.00159057
0.00130475
0.00126012
0.00137596
0.00160097
0.00190119
0.00225297
0.00263899
0.00304631
0.00346522
0.00388857
0.00431132
0.00473005
0.00514268
0.00554809
0.00594586
0.00633603
0.00671894
0.00709506
0.00746494
0.00782912
0.00818806
0.0085422
0.00889186
0.0092373
0.00957868
0.00991607
0.0102495
0.0105788
0.0109038
0.0112242
0.0115397
0.0118498
0.0121538
0.0124512
0.012741
0.0130223
0.0132942
0.0135553
0.0138044
0.01404
0.0142606
0.0144643
0.0146491
0.0148127
0.0149523
0.0150646
0.0151453
0.0151891
0.00273506
0.00187458
0.0015063
0.00145103
0.00160097
0.00188647
0.00226131
0.00269412
0.003163
0.00365233
0.00415099
0.00465114
0.00514749
0.00563663
0.00611661
0.0065865
0.0070461
0.00749568
0.00793579
0.0083671
0.00879034
0.00920619
0.00961528
0.0100182
0.0104153
0.0108069
0.0111934
0.0115747
0.0119511
0.0123223
0.0126883
0.0130488
0.0134033
0.0137513
0.0140924
0.0144256
0.0147501
0.0150649
0.0153689
0.0156607
0.0159389
0.016202
0.0164481
0.0166752
0.0168812
0.0170635
0.017219
0.0173441
0.0174339
0.0174827
0.00327867
0.00220356
0.00175605
0.00170203
0.00190119
0.00226131
0.00272104
0.00324009
0.00379201
0.00435921
0.00493008
0.00549699
0.00605513
0.0066017
0.00713531
0.00765553
0.00816258
0.00865708
0.00913987
0.00961188
0.010074
0.0105272
0.0109721
0.0114096
0.01184
0.012264
0.0126817
0.0130934
0.0134992
0.0138991
0.0142929
0.0146805
0.0150614
0.0154351
0.0158011
0.0161585
0.0165064
0.0168437
0.0171693
0.0174818
0.0177797
0.0180613
0.0183246
0.0185676
0.0187879
0.0189828
0.0191491
0.0192827
0.0193787
0.0194308
0.00386521
0.00256331
0.00203913
0.00199508
0.00225297
0.00269412
0.00324009
0.0038414
0.00446778
0.00510088
0.00572962
0.00634744
0.00695072
0.00753767
0.00810778
0.00866132
0.00919905
0.009722
0.0102314
0.0107283
0.0112139
0.0116894
0.0121555
0.0126131
0.0130629
0.0135053
0.013941
0.01437
0.0147926
0.0152089
0.0156187
0.0160218
0.016418
0.0168067
0.0171873
0.017559
0.0179209
0.0182719
0.0186107
0.018936
0.0192461
0.0195392
0.0198134
0.0200666
0.0202961
0.0204991
0.0206722
0.0208114
0.0209113
0.0209655
0.00448089
0.00294268
0.0023442
0.00231666
0.00263899
0.003163
0.00379201
0.00446778
0.00515747
0.0058431
0.00651513
0.00716875
0.00780191
0.00841407
0.00900574
0.00957796
0.0101321
0.0106695
0.0111918
0.0117004
0.0121966
0.0126817
0.0131567
0.0136225
0.01408
0.0145297
0.0149723
0.015408
0.0158371
0.0162597
0.0166759
0.0170855
0.0174881
0.0178833
0.0182706
0.0186491
0.0190179
0.0193758
0.0197216
0.0200538
0.0203708
0.0206707
0.0209513
0.0212105
0.0214457
0.0216537
0.0218312
0.0219738
0.0220763
0.0221319
0.0051145
0.0033331
0.00266261
0.00265639
0.00304631
0.00365233
0.00435921
0.00510088
0.0058431
0.00656944
0.00727261
0.00794994
0.00860112
0.00922703
0.00982915
0.0104092
0.0109691
0.0115108
0.0120359
0.0125463
0.0130434
0.0135285
0.014003
0.0144679
0.014924
0.0153721
0.0158129
0.0162469
0.0166743
0.0170954
0.0175103
0.0179189
0.0183209
0.018716
0.0191037
0.019483
0.0198532
0.0202129
0.0205609
0.0208957
0.0212156
0.0215186
0.0218025
0.022065
0.0223032
0.0225142
0.0226942
0.0228389
0.0229429
0.0229993
0.0057571
0.00372808
0.00298781
0.00300637
0.00346522
0.00415099
0.00493008
0.00572962
0.00651513
0.00727261
0.00799757
0.00868971
0.00935053
0.0099822
0.0105871
0.0111678
0.0117265
0.0122654
0.0127865
0.0132919
0.013783
0.0142616
0.0147288
0.0151859
0.015634
0.0160738
0.0165062
0.0169318
0.017351
0.0177642
0.0181715
0.0185731
0.0189688
0.0193582
0.0197409
0.0201161
0.020483
0.0208402
0.0211866
0.0215204
0.02184
0.0221433
0.0224279
0.0226914
0.0229309
0.0231432
0.0233245
0.0234703
0.0235751
0.0236319
0.00640171
0.0041228
0.00331494
0.00336068
0.00388857
0.00465114
0.00549699
0.00634744
0.00716875
0.00794994
0.00868971
0.00939029
0.010055
0.0106871
0.01129
0.0118666
0.0124196
0.0129514
0.0134644
0.0139604
0.0144413
0.0149088
0.0153642
0.015809
0.0162443
0.0166709
0.01709
0.0175021
0.017908
0.0183081
0.0187028
0.0190923
0.0194765
0.0198554
0.0202286
0.0205953
0.0209547
0.0213056
0.0216467
0.0219765
0.0222929
0.0225939
0.0228771
0.0231398
0.0233789
0.0235911
0.0237726
0.0239186
0.0240237
0.0240806
0.00704303
0.0045138
0.00364052
0.00371506
0.00431132
0.00514749
0.00605513
0.00695072
0.00780191
0.00860112
0.00935053
0.010055
0.0107195
0.0113486
0.0119463
0.0125161
0.0130608
0.0135831
0.0140854
0.0145697
0.0150379
0.0154917
0.0159326
0.0163621
0.0167814
0.0171916
0.0175938
0.0179888
0.0183775
0.0187605
0.0191383
0.0195114
0.01988
0.0202441
0.0206034
0.0209575
0.0213055
0.0216465
0.0219791
0.0223016
0.0226121
0.0229085
0.0231881
0.0234481
0.0236853
0.0238963
0.024077
0.0242225
0.0243272
0.0243841
0.00767719
0.00489872
0.00396223
0.00406659
0.00473005
0.00563663
0.0066017
0.00753767
0.00841407
0.00922703
0.0099822
0.0106871
0.0113486
0.0119723
0.0125629
0.0131242
0.0136592
0.0141707
0.0146611
0.0151324
0.0155867
0.0160255
0.0164505
0.0168631
0.0172647
0.0176564
0.0180394
0.0184148
0.0187834
0.0191463
0.019504
0.0198573
0.0202065
0.020552
0.0208937
0.0212313
0.0215643
0.0218918
0.0222124
0.0225246
0.0228264
0.0231156
0.0233894
0.0236449
0.0238788
0.0240873
0.0242661
0.0244104
0.0245144
0.0245709
0.00830158
0.00527608
0.00427859
0.00441346
0.00514268
0.00611661
0.00713531
0.00810778
0.00900574
0.00982915
0.0105871
0.01129
0.0119463
0.0125629
0.013145
0.0136967
0.0142212
0.0147213
0.0151993
0.0156573
0.0160972
0.0165207
0.0169293
0.0173243
0.0177073
0.0180795
0.0184421
0.0187963
0.0191431
0.0194837
0.0198189
0.0201496
0.0204766
0.0208002
0.0211209
0.0214386
0.0217531
0.0220635
0.0223687
0.0226674
0.0229576
0.023237
0.0235028
0.0237518
0.0239806
0.0241853
0.0243613
0.0245035
0.0246062
0.024662
0.00891453
0.00564509
0.00458883
0.00475464
0.00554809
0.0065865
0.00765553
0.00866132
0.00957796
0.0104092
0.0111678
0.0118666
0.0125161
0.0131242
0.0136967
0.0142379
0.0147514
0.0152398
0.0157054
0.0161502
0.0165759
0.016984
0.0173762
0.0177538
0.0181182
0.0184706
0.0188123
0.0191445
0.0194686
0.0197856
0.0200967
0.0204029
0.0207053
0.0210046
0.0213014
0.021596
0.0218886
0.0221786
0.0224652
0.0227471
0.0230227
0.0232894
0.0235446
0.023785
0.0240069
0.0242062
0.0243781
0.0245175
0.0246183
0.0246731
0.00951519
0.00600545
0.00489268
0.00508972
0.00594586
0.0070461
0.00816258
0.00919905
0.0101321
0.0109691
0.0117265
0.0124196
0.0130608
0.0136592
0.0142212
0.0147514
0.0152535
0.01573
0.0161832
0.0166149
0.0170267
0.01742
0.0177963
0.0181568
0.0185029
0.0188358
0.0191567
0.019467
0.019768
0.0200608
0.0203469
0.0206274
0.0209036
0.0211765
0.0214471
0.0217161
0.0219838
0.0222503
0.022515
0.0227769
0.0230346
0.0232857
0.0235277
0.023757
0.0239699
0.0241621
0.0243287
0.0244642
0.0245624
0.0246159
0.0101032
0.00635722
0.00519017
0.0054187
0.00633603
0.00749568
0.00865708
0.009722
0.0106695
0.0115108
0.0122654
0.0129514
0.0135831
0.0141707
0.0147213
0.0152398
0.01573
0.0161945
0.0166353
0.0170541
0.0174524
0.0178314
0.0181923
0.0185365
0.0188649
0.0191789
0.0194797
0.0197684
0.0200464
0.0203151
0.0205758
0.02083
0.021079
0.0213243
0.0215669
0.0218081
0.0220485
0.0222887
0.0225284
0.0227672
0.0230038
0.0232362
0.0234619
0.0236776
0.0238793
0.0240625
0.0242221
0.0243526
0.0244474
0.0244991
0.0106787
0.00670066
0.00548156
0.00574182
0.00671894
0.00793579
0.00913987
0.0102314
0.0111918
0.0120359
0.0127865
0.0134644
0.0140854
0.0146611
0.0151993
0.0157054
0.0161832
0.0166353
0.0170636
0.0174697
0.0178547
0.0182199
0.0185662
0.0188947
0.0192064
0.0195023
0.0197835
0.0200514
0.0203071
0.0205521
0.0207876
0.0210154
0.0212368
0.0214536
0.0216672
0.0218789
0.0220901
0.0223015
0.0225135
0.0227261
0.0229385
0.0231491
0.0233555
0.0235546
0.0237424
0.0239145
0.0240654
0.0241895
0.02428
0.0243295
0.011242
0.00703617
0.00576724
0.00605946
0.00709506
0.0083671
0.00961188
0.0107283
0.0117004
0.0125463
0.0132919
0.0139604
0.0145697
0.0151324
0.0156573
0.0161502
0.0166149
0.0170541
0.0174697
0.0178629
0.018235
0.0185867
0.0189189
0.0192325
0.0195281
0.0198068
0.0200696
0.0203174
0.0205516
0.0207735
0.0209845
0.0211862
0.0213802
0.0215682
0.021752
0.0219334
0.0221137
0.0222945
0.0224765
0.0226602
0.0228454
0.0230309
0.0232149
0.0233944
0.0235656
0.0237241
0.0238643
0.0239804
0.0240655
0.0241123
0.0117934
0.00736417
0.00604759
0.00637205
0.00746494
0.00879034
0.010074
0.0112139
0.0121966
0.0130434
0.013783
0.0144413
0.0150379
0.0155867
0.0160972
0.0165759
0.0170267
0.0174524
0.0178547
0.018235
0.018594
0.0189325
0.019251
0.0195502
0.0198306
0.0200929
0.020338
0.0205669
0.0207806
0.0209803
0.0211675
0.0213438
0.0215107
0.0216702
0.0218241
0.0219745
0.0221231
0.0222718
0.0224219
0.0225744
0.0227296
0.0228871
0.0230455
0.0232022
0.0233539
0.0234961
0.0236233
0.0237296
0.0238081
0.0238515
0.0123334
0.00768511
0.00632304
0.00668001
0.00782912
0.00920619
0.0105272
0.0116894
0.0126817
0.0135285
0.0142616
0.0149088
0.0154917
0.0160255
0.0165207
0.016984
0.01742
0.0178314
0.0182199
0.0185867
0.0189325
0.0192577
0.0195627
0.0198479
0.0201136
0.0203604
0.0205888
0.0207996
0.0209938
0.0211724
0.0213368
0.0214885
0.0216291
0.0217606
0.0218849
0.0220042
0.0221206
0.0222363
0.022353
0.0224723
0.0225953
0.022722
0.0228517
0.0229826
0.0231116
0.0232346
0.0233463
0.0234408
0.0235113
0.0235504
0.0128625
0.00799937
0.00659394
0.00698375
0.00818806
0.00961528
0.0109721
0.0121555
0.0131567
0.014003
0.0147288
0.0153642
0.0159326
0.0164505
0.0169293
0.0173762
0.0177963
0.0181923
0.0185662
0.0189189
0.019251
0.0195627
0.0198542
0.0201256
0.0203771
0.0206089
0.0208213
0.021015
0.0211906
0.0213492
0.0214918
0.0216199
0.0217351
0.0218394
0.0219346
0.0220231
0.0221073
0.0221895
0.0222719
0.0223567
0.0224454
0.0225388
0.0226371
0.022739
0.0228422
0.0229429
0.0230365
0.023117
0.0231777
0.0232118
0.0133809
0.0083073
0.00686061
0.00728359
0.0085422
0.0100182
0.0114096
0.0126131
0.0136225
0.0144679
0.0151859
0.015809
0.0163621
0.0168631
0.0173243
0.0177538
0.0181568
0.0185365
0.0188947
0.0192325
0.0195502
0.0198479
0.0201256
0.0203832
0.0206206
0.0208378
0.0210348
0.0212121
0.0213701
0.0215096
0.0216315
0.0217371
0.021828
0.0219059
0.0219729
0.0220313
0.0220835
0.0221321
0.0221798
0.022229
0.0222819
0.0223401
0.0224044
0.0224744
0.0225487
0.0226241
0.0226966
0.0227606
0.0228099
0.0228379
0.013889
0.00860917
0.0071233
0.00757981
0.00889186
0.0104153
0.01184
0.0130629
0.01408
0.014924
0.015634
0.0162443
0.0167814
0.0172647
0.0177073
0.0181182
0.0185029
0.0188649
0.0192064
0.0195281
0.0198306
0.0201136
0.0203771
0.0206206
0.0208439
0.0210466
0.0212286
0.02139
0.0215311
0.0216524
0.0217546
0.0218389
0.0219065
0.0219592
0.0219988
0.0220278
0.0220487
0.0220641
0.0220769
0.02209
0.0221061
0.0221275
0.0221557
0.0221912
0.0222336
0.0222807
0.0223291
0.0223741
0.0224099
0.0224307
0.014387
0.00890518
0.0073822
0.0078726
0.0092373
0.0108069
0.012264
0.0135053
0.0145297
0.0153721
0.0160738
0.0166709
0.0171916
0.0176564
0.0180795
0.0184706
0.0188358
0.0191789
0.0195023
0.0198068
0.0200929
0.0203604
0.0206089
0.0208378
0.0210466
0.0212347
0.0214019
0.0215479
0.0216726
0.0217764
0.0218598
0.0219236
0.021969
0.0219975
0.022011
0.0220116
0.0220018
0.0219846
0.0219628
0.0219398
0.0219185
0.0219018
0.0218922
0.021891
0.0218988
0.0219146
0.021936
0.0219593
0.0219797
0.0219922
0.0148749
0.00919548
0.00763744
0.00816207
0.00957868
0.0111934
0.0126817
0.013941
0.0149723
0.0158129
0.0165062
0.01709
0.0175938
0.0180394
0.0184421
0.0188123
0.0191567
0.0194797
0.0197835
0.0200696
0.020338
0.0205888
0.0208213
0.0210348
0.0212286
0.0214019
0.0215541
0.0216847
0.0217934
0.0218803
0.0219456
0.0219898
0.022014
0.0220194
0.0220077
0.0219809
0.0219416
0.0218924
0.0218367
0.0217776
0.0217187
0.0216634
0.0216146
0.021575
0.0215459
0.0215277
0.0215193
0.0215182
0.021521
0.0215239
0.0153527
0.00948014
0.00788906
0.00844829
0.00991607
0.0115747
0.0130934
0.01437
0.015408
0.0162469
0.0169318
0.0175021
0.0179888
0.0184148
0.0187963
0.0191445
0.019467
0.0197684
0.0200514
0.0203174
0.0205669
0.0207996
0.021015
0.0212121
0.02139
0.0215479
0.0216847
0.0217998
0.0218926
0.0219628
0.0220104
0.0220358
0.0220396
0.0220228
0.021987
0.0219339
0.021866
0.021786
0.0216969
0.0216024
0.021506
0.0214117
0.0213231
0.0212435
0.0211756
0.0211211
0.0210802
0.0210523
0.0210354
0.0210276
0.0158204
0.00975915
0.00813707
0.00873123
0.0102495
0.0119511
0.0134992
0.0147926
0.0158371
0.0166743
0.017351
0.017908
0.0183775
0.0187834
0.0191431
0.0194686
0.019768
0.0200464
0.0203071
0.0205516
0.0207806
0.0209938
0.0211906
0.0213701
0.0215311
0.0216726
0.0217934
0.0218926
0.0219692
0.0220228
0.0220531
0.0220601
0.0220441
0.022006
0.021947
0.0218687
0.0217732
0.0216633
0.0215418
0.0214125
0.0212791
0.0211459
0.021017
0.0208967
0.0207885
0.0206957
0.0206201
0.020563
0.0205245
0.0205047
0.0162777
0.0100325
0.0083814
0.00901078
0.0105788
0.0123223
0.0138991
0.0152089
0.0162597
0.0170954
0.0177642
0.0183081
0.0187605
0.0191463
0.0194837
0.0197856
0.0200608
0.0203151
0.0205521
0.0207735
0.0209803
0.0211724
0.0213492
0.0215096
0.0216524
0.0217764
0.0218803
0.0219628
0.0220228
0.0220596
0.0220725
0.0220613
0.0220261
0.0219672
0.0218858
0.0217831
0.0216611
0.0215222
0.0213694
0.0212061
0.0210364
0.0208646
0.0206955
0.0205339
0.0203845
0.0202518
0.0201398
0.0200514
0.0199895
0.0199567
0.0167245
0.0102999
0.00862191
0.00928678
0.0109038
0.0126883
0.0142929
0.0156187
0.0166759
0.0175103
0.0181715
0.0187028
0.0191383
0.019504
0.0198189
0.0200967
0.0203469
0.0205758
0.0207876
0.0209845
0.0211675
0.0213368
0.0214918
0.0216315
0.0217546
0.0218598
0.0219456
0.0220104
0.0220531
0.0220725
0.0220678
0.0220383
0.0219839
0.0219048
0.0218015
0.0216752
0.0215275
0.0213606
0.0211773
0.0209811
0.0207758
0.0205661
0.0203571
0.0201541
0.019963
0.0197896
0.0196396
0.0195185
0.0194317
0.0193849
0.0171603
0.0105614
0.00885841
0.00955897
0.0112242
0.0130488
0.0146805
0.0160218
0.0170855
0.0179189
0.0185731
0.0190923
0.0195114
0.0198573
0.0201496
0.0204029
0.0206274
0.02083
0.0210154
0.0211862
0.0213438
0.0214885
0.0216199
0.0217371
0.0218389
0.0219236
0.0219898
0.0220358
0.0220601
0.0220613
0.0220383
0.0219903
0.0219166
0.0218173
0.0216925
0.0215431
0.0213704
0.0211764
0.0209636
0.0207352
0.0204953
0.0202484
0.02
0.019756
0.0195231
0.0193085
0.0191197
0.0189649
0.0188522
0.0187908
0.0175847
0.0108167
0.00909065
0.00982702
0.0115397
0.0134033
0.0150614
0.016418
0.0174881
0.0183209
0.0189688
0.0194765
0.01988
0.0202065
0.0204766
0.0207053
0.0209036
0.021079
0.0212368
0.0213802
0.0215107
0.0216291
0.0217351
0.021828
0.0219065
0.021969
0.022014
0.0220396
0.0220441
0.0220261
0.0219839
0.0219166
0.0218233
0.0217036
0.0215574
0.0213851
0.021188
0.0209674
0.0207259
0.0204664
0.0201927
0.0199095
0.0196225
0.019338
0.0190637
0.0188079
0.0185802
0.018391
0.018252
0.0181755
0.0179972
0.0110654
0.00931828
0.0100905
0.0118498
0.0137513
0.0154351
0.0168067
0.0178833
0.018716
0.0193582
0.0198554
0.0202441
0.020552
0.0208002
0.0210046
0.0211765
0.0213243
0.0214536
0.0215682
0.0216702
0.0217606
0.0218394
0.0219059
0.0219592
0.0219975
0.0220194
0.0220228
0.022006
0.0219672
0.0219048
0.0218173
0.0217036
0.021563
0.0213951
0.0212001
0.0209786
0.020732
0.0204623
0.0201723
0.0198657
0.0195472
0.0192224
0.0188984
0.0185833
0.0182869
0.0180206
0.0177974
0.0176319
0.0175404
0.0183971
0.0113072
0.0095409
0.0103489
0.0121538
0.0140924
0.0158011
0.0171873
0.0182706
0.0191037
0.0197409
0.0202286
0.0206034
0.0208937
0.0211209
0.0213014
0.0214471
0.0215669
0.0216672
0.021752
0.0218241
0.0218849
0.0219346
0.0219729
0.0219988
0.022011
0.0220077
0.021987
0.021947
0.0218858
0.0218015
0.0216925
0.0215574
0.0213951
0.021205
0.0209868
0.020741
0.0204685
0.0201711
0.0198512
0.0195125
0.0191594
0.0187979
0.0184353
0.0180806
0.0177447
0.0174408
0.0171844
0.0169932
0.016887
0.0187839
0.0115416
0.00975804
0.0106017
0.0124512
0.0144256
0.0161585
0.017559
0.0186491
0.019483
0.0201161
0.0205953
0.0209575
0.0212313
0.0214386
0.021596
0.0217161
0.0218081
0.0218789
0.0219334
0.0219745
0.0220042
0.0220231
0.0220313
0.0220278
0.0220116
0.0219809
0.0219339
0.0218687
0.0217831
0.0216752
0.0215431
0.0213851
0.0212001
0.0209868
0.0207449
0.0204744
0.0201759
0.0198508
0.0195015
0.0191312
0.0187444
0.0183473
0.0179474
0.0175545
0.0171808
0.0168411
0.0165532
0.0163378
0.0162179
0.0191566
0.0117681
0.00996912
0.010848
0.012741
0.0147501
0.0165064
0.0179209
0.0190179
0.0198532
0.020483
0.0209547
0.0213055
0.0215643
0.0217531
0.0218886
0.0219838
0.0220485
0.0220901
0.0221137
0.0221231
0.0221206
0.0221073
0.0220835
0.0220487
0.0220018
0.0219416
0.021866
0.0217732
0.0216611
0.0215275
0.0213704
0.021188
0.0209786
0.020741
0.0204744
0.0201785
0.0198535
0.0195007
0.0191221
0.0187207
0.018301
0.0178693
0.0174336
0.0170045
0.0165952
0.0162224
0.015906
0.015669
0.015537
0.0195144
0.0119862
0.0101735
0.0110872
0.0130223
0.0150649
0.0168437
0.0182719
0.0193758
0.0202129
0.0208402
0.0213056
0.0216465
0.0218918
0.0220635
0.0221786
0.0222503
0.0222887
0.0223015
0.0222945
0.0222718
0.0222363
0.0221895
0.0221321
0.0220641
0.0219846
0.0218924
0.021786
0.0216633
0.0215222
0.0213606
0.0211764
0.0209674
0.020732
0.0204685
0.0201759
0.0198535
0.0195015
0.0191205
0.0187124
0.0182803
0.0178285
0.0173634
0.0168937
0.0164309
0.0159894
0.0155875
0.0152468
0.0149921
0.0148505
0.0198563
0.0121953
0.0103706
0.0113184
0.0132942
0.0153689
0.0171693
0.0186107
0.0197216
0.0205609
0.0211866
0.0216467
0.0219791
0.0222124
0.0223687
0.0224652
0.022515
0.0225284
0.0225135
0.0224765
0.0224219
0.022353
0.0222719
0.0221798
0.0220769
0.0219628
0.0218367
0.0216969
0.0215418
0.0213694
0.0211773
0.0209636
0.0207259
0.0204623
0.0201711
0.0198508
0.0195007
0.0191205
0.0187107
0.0182731
0.0178103
0.0173272
0.0168303
0.016329
0.0158359
0.0153669
0.0149416
0.0145828
0.014316
0.0141683
0.0201813
0.0123946
0.0105595
0.0115405
0.0135553
0.0156607
0.0174818
0.018936
0.0200538
0.0208957
0.0215204
0.0219765
0.0223016
0.0225246
0.0226674
0.0227471
0.0227769
0.0227672
0.0227261
0.0226602
0.0225744
0.0224723
0.0223567
0.022229
0.02209
0.0219398
0.0217776
0.0216024
0.0214125
0.0212061
0.0209811
0.0207352
0.0204664
0.0201723
0.0198512
0.0195015
0.0191221
0.0187124
0.0182731
0.0178054
0.0173124
0.0167989
0.0162723
0.0157428
0.0152243
0.0147343
0.0142934
0.0139251
0.0136536
0.0135044
0.0204882
0.0125833
0.0107393
0.0117524
0.0138044
0.0159389
0.0177797
0.0192461
0.0203708
0.0212156
0.02184
0.0222929
0.0226121
0.0228264
0.0229576
0.0230227
0.0230346
0.0230038
0.0229385
0.0228454
0.0227296
0.0225953
0.0224454
0.0222819
0.0221061
0.0219185
0.0217187
0.021506
0.0212791
0.0210364
0.0207758
0.0204953
0.0201927
0.0198657
0.0195125
0.0191312
0.0187207
0.0182803
0.0178103
0.0173124
0.0167896
0.0162474
0.015694
0.0151411
0.0146041
0.014102
0.0136562
0.013289
0.0130221
0.0128769
0.0207757
0.0127606
0.010909
0.0119528
0.01404
0.016202
0.0180613
0.0195392
0.0206707
0.0215186
0.0221433
0.0225939
0.0229085
0.0231156
0.023237
0.0232894
0.0232857
0.0232362
0.0231491
0.0230309
0.0228871
0.022722
0.0225388
0.0223401
0.0221275
0.0219018
0.0216634
0.0214117
0.0211459
0.0208646
0.0205661
0.0202484
0.0199095
0.0195472
0.0191594
0.0187444
0.018301
0.0178285
0.0173272
0.0167989
0.0162474
0.015679
0.0151033
0.0145337
0.0139875
0.013485
0.0130471
0.0126933
0.0124408
0.0123051
0.0210424
0.0129255
0.0110676
0.0121404
0.0142606
0.0164481
0.0183246
0.0198134
0.0209513
0.0218025
0.0224279
0.0228771
0.0231881
0.0233894
0.0235028
0.0235446
0.0235277
0.0234619
0.0233555
0.0232149
0.0230455
0.0228517
0.0226371
0.0224044
0.0221557
0.0218922
0.0216146
0.0213231
0.021017
0.0206955
0.0203571
0.02
0.0196225
0.0192224
0.0187979
0.0183473
0.0178693
0.0173634
0.0168303
0.0162723
0.015694
0.0151033
0.0145115
0.0139345
0.0133911
0.0129018
0.0124855
0.0121571
0.0119273
0.0118056
0.0212867
0.0130769
0.0112138
0.0123137
0.0144643
0.0166752
0.0185676
0.0200666
0.0212105
0.022065
0.0226914
0.0231398
0.0234481
0.0236449
0.0237518
0.023785
0.023757
0.0236776
0.0235546
0.0233944
0.0232022
0.0229826
0.022739
0.0224744
0.0221912
0.021891
0.021575
0.0212435
0.0208967
0.0205339
0.0201541
0.019756
0.019338
0.0188984
0.0184353
0.0179474
0.0174336
0.0168937
0.016329
0.0157428
0.0151411
0.0145337
0.0139345
0.0133614
0.0128342
0.0123719
0.0119893
0.0116952
0.0114937
0.0113884
0.0215067
0.0132136
0.0113464
0.012471
0.0146491
0.0168812
0.0187879
0.0202961
0.0214457
0.0223032
0.0229309
0.0233789
0.0236853
0.0238788
0.0239806
0.0240069
0.0239699
0.0238793
0.0237424
0.0235656
0.0233539
0.0231116
0.0228422
0.0225487
0.0222336
0.0218988
0.0215459
0.0211756
0.0207885
0.0203845
0.019963
0.0195231
0.0190637
0.0185833
0.0180806
0.0175545
0.0170045
0.0164309
0.0158359
0.0152243
0.0146041
0.0139875
0.0133911
0.0128342
0.012336
0.0119119
0.0115709
0.0113152
0.0111433
0.0110546
0.0217004
0.013334
0.0114635
0.0126102
0.0148127
0.0170635
0.0189828
0.0204991
0.0216537
0.0225142
0.0231432
0.0235911
0.0238963
0.0240873
0.0241853
0.0242062
0.0241621
0.0240625
0.0239145
0.0237241
0.0234961
0.0232346
0.0229429
0.0226241
0.0222807
0.0219146
0.0215277
0.0211211
0.0206957
0.0202518
0.0197896
0.0193085
0.0188079
0.0182869
0.0177447
0.0171808
0.0165952
0.0159894
0.0153669
0.0147343
0.014102
0.013485
0.0129018
0.0123719
0.0119119
0.0115319
0.0112344
0.0110162
0.010872
0.0107983
0.0218648
0.0134365
0.0115635
0.0127291
0.0149523
0.017219
0.0191491
0.0206722
0.0218312
0.0226942
0.0233245
0.0237726
0.024077
0.0242661
0.0243613
0.0243781
0.0243287
0.0242221
0.0240654
0.0238643
0.0236233
0.0233463
0.0230365
0.0226966
0.0223291
0.021936
0.0215193
0.0210802
0.0206201
0.0201398
0.0196396
0.0191197
0.0185802
0.0180206
0.0174408
0.0168411
0.0162224
0.0155875
0.0149416
0.0142934
0.0136562
0.0130471
0.0124855
0.0119893
0.0115709
0.0112344
0.010977
0.0107917
0.010671
0.0106099
0.0219966
0.0135187
0.0116438
0.0128247
0.0150646
0.0173441
0.0192827
0.0208114
0.0219738
0.0228389
0.0234703
0.0239186
0.0242225
0.0244104
0.0245035
0.0245175
0.0244642
0.0243526
0.0241895
0.0239804
0.0237296
0.0234408
0.023117
0.0227606
0.0223741
0.0219593
0.0215182
0.0210523
0.020563
0.0200514
0.0195185
0.0189649
0.018391
0.0177974
0.0171844
0.0165532
0.015906
0.0152468
0.0145828
0.0139251
0.013289
0.0126933
0.0121571
0.0116952
0.0113152
0.0110162
0.0107917
0.0106327
0.0105305
0.0104795
0.0220911
0.0135777
0.0117016
0.0128935
0.0151453
0.0174339
0.0193787
0.0209113
0.0220763
0.0229429
0.0235751
0.0240237
0.0243272
0.0245144
0.0246062
0.0246183
0.0245624
0.0244474
0.02428
0.0240655
0.0238081
0.0235113
0.0231777
0.0228099
0.0224099
0.0219797
0.021521
0.0210354
0.0205245
0.0199895
0.0194317
0.0188522
0.018252
0.0176319
0.0169932
0.0163378
0.015669
0.0149921
0.014316
0.0136536
0.0130221
0.0124408
0.0119273
0.0114937
0.0111433
0.010872
0.010671
0.0105305
0.0104418
0.0103984
0.0221422
0.0136097
0.0117329
0.0129308
0.0151891
0.0174827
0.0194308
0.0209655
0.0221319
0.0229993
0.0236319
0.0240806
0.0243841
0.0245709
0.024662
0.0246731
0.0246159
0.0244991
0.0243295
0.0241123
0.0238515
0.0235504
0.0232118
0.0228379
0.0224307
0.0219922
0.0215239
0.0210276
0.0205047
0.0199567
0.0193849
0.0187908
0.0181755
0.0175404
0.016887
0.0162179
0.015537
0.0148505
0.0141683
0.0135044
0.0128769
0.0123051
0.0118056
0.0113884
0.0110546
0.0107983
0.0106099
0.0104795
0.0103984
0.0103599
)
;

boundaryField
{
    bottomWall
    {
        type            kqRWallFunction;
        value           nonuniform List<scalar> 
50
(
0.00124973
0.00133531
0.0015344
0.00184441
0.00225082
0.00273506
0.00327867
0.00386521
0.00448089
0.0051145
0.0057571
0.00640171
0.00704303
0.00767719
0.00830158
0.00891453
0.00951519
0.0101032
0.0106787
0.011242
0.0117934
0.0123334
0.0128625
0.0133809
0.013889
0.014387
0.0148749
0.0153527
0.0158204
0.0162777
0.0167245
0.0171603
0.0175847
0.0179972
0.0183971
0.0187839
0.0191566
0.0195144
0.0198563
0.0201813
0.0204882
0.0207757
0.0210424
0.0212867
0.0215067
0.0217004
0.0218648
0.0219966
0.0220911
0.0221422
)
;
    }
    leftWall
    {
        type            kqRWallFunction;
        value           nonuniform List<scalar> 
50
(
0.00124973
0.00133531
0.0015344
0.00184441
0.00225082
0.00273506
0.00327867
0.00386521
0.00448089
0.0051145
0.0057571
0.00640171
0.00704303
0.00767719
0.00830158
0.00891453
0.00951519
0.0101032
0.0106787
0.011242
0.0117934
0.0123334
0.0128625
0.0133809
0.013889
0.014387
0.0148749
0.0153527
0.0158204
0.0162777
0.0167245
0.0171603
0.0175847
0.0179972
0.0183971
0.0187839
0.0191566
0.0195144
0.0198563
0.0201813
0.0204882
0.0207757
0.0210424
0.0212867
0.0215067
0.0217004
0.0218648
0.0219966
0.0220911
0.0221422
)
;
    }
    topSym
    {
        type            symmetryPlane;
    }
    rightSym
    {
        type            symmetryPlane;
    }
    inlet
    {
        type            cyclic;
    }
    outlet
    {
        type            cyclic;
    }
}


// ************************************************************************* //
