/*--------------------------------*- C++ -*----------------------------------*\
| =========                 |                                                 |
| \\      /  F ield         | OpenFOAM: The Open Source CFD Toolbox           |
|  \\    /   O peration     | Version:  v1912                                 |
|   \\  /    A nd           | Website:  www.openfoam.com                      |
|    \\/     M anipulation  |                                                 |
\*---------------------------------------------------------------------------*/
FoamFile
{
    version     2.0;
    format      ascii;
    class       volScalarField;
    location    "5000";
    object      p;
}
// * * * * * * * * * * * * * * * * * * * * * * * * * * * * * * * * * * * * * //

dimensions      [0 2 -2 0 0 0 0];


internalField   nonuniform List<scalar> 
2500
(
1.23399e-12
7.23846e-08
2.70178e-07
6.0595e-07
1.14407e-06
2.00986e-06
3.35768e-06
5.32431e-06
7.9839e-06
1.13303e-05
1.52851e-05
1.972e-05
2.44833e-05
2.94219e-05
3.43973e-05
3.92935e-05
4.40189e-05
4.85045e-05
5.27002e-05
5.65696e-05
6.0085e-05
6.32233e-05
6.59621e-05
6.82769e-05
7.01388e-05
7.15137e-05
7.23615e-05
7.26361e-05
7.22862e-05
7.12563e-05
6.94888e-05
6.69263e-05
6.3514e-05
5.92038e-05
5.39583e-05
4.77557e-05
4.05953e-05
3.25039e-05
2.35383e-05
1.37915e-05
3.40584e-06
-7.43156e-06
-1.84748e-05
-2.94404e-05
-3.99814e-05
-4.97507e-05
-5.83328e-05
-6.53891e-05
-7.0467e-05
-7.32543e-05
7.23846e-08
9.91671e-08
2.70624e-07
5.73541e-07
1.05086e-06
1.81891e-06
3.02753e-06
4.81068e-06
7.24486e-06
1.03345e-05
1.40173e-05
1.81815e-05
2.26874e-05
2.73891e-05
3.21499e-05
3.68522e-05
4.14011e-05
4.57239e-05
4.9767e-05
5.34917e-05
5.68687e-05
5.98741e-05
6.24855e-05
6.46788e-05
6.64257e-05
6.76932e-05
6.84418e-05
6.86264e-05
6.81966e-05
6.70976e-05
6.52725e-05
6.26642e-05
5.92185e-05
5.48873e-05
4.96333e-05
4.34343e-05
3.62893e-05
2.82243e-05
1.92953e-05
9.59398e-06
-7.38889e-07
-1.15181e-05
-2.24998e-05
-3.3403e-05
-4.38833e-05
-5.3596e-05
-6.21282e-05
-6.91432e-05
-7.41904e-05
-7.69879e-05
2.70178e-07
2.70624e-07
5.04893e-07
9.42125e-07
1.62356e-06
2.67887e-06
4.28461e-06
6.60418e-06
9.73414e-06
1.36916e-05
1.84225e-05
2.38184e-05
2.97374e-05
3.60252e-05
4.25326e-05
4.91271e-05
5.56982e-05
6.21588e-05
6.84423e-05
7.44992e-05
8.02915e-05
8.5788e-05
9.09602e-05
9.57785e-05
0.00010021
0.000104217
0.000107755
0.000110775
0.000113219
0.000115027
0.000116136
0.000116481
0.000115999
0.000114632
0.000112333
0.000109068
0.000104823
9.96103e-05
9.34697e-05
8.64759e-05
7.87515e-05
7.04615e-05
6.18278e-05
5.31077e-05
4.46196e-05
3.66788e-05
2.96648e-05
2.38741e-05
1.97091e-05
1.73772e-05
6.0595e-07
5.73541e-07
9.42125e-07
1.73918e-06
3.11277e-06
5.28726e-06
8.5016e-06
1.2964e-05
1.87898e-05
2.59887e-05
3.44801e-05
4.41166e-05
5.4712e-05
6.6066e-05
7.79832e-05
9.02869e-05
0.000102825
0.000115474
0.000128134
0.000140727
0.000153189
0.000165469
0.000177519
0.000189294
0.000200746
0.000211823
0.000222466
0.000232614
0.000242194
0.000251134
0.000259353
0.000266771
0.000273307
0.000278886
0.000283439
0.000286909
0.000289258
0.000290469
0.000290556
0.00028956
0.000287571
0.000284715
0.000281176
0.000277165
0.000272954
0.0002688
0.00026502
0.000261829
0.000259534
0.000258213
1.14407e-06
1.05086e-06
1.62356e-06
3.11277e-06
6.07022e-06
1.10664e-05
1.8411e-05
2.81864e-05
4.03367e-05
5.47211e-05
7.11321e-05
8.93139e-05
0.000108989
0.000129877
0.000151713
0.000174255
0.000197292
0.00022064
0.000244148
0.000267688
0.000291154
0.000314455
0.00033751
0.000360245
0.000382587
0.000404462
0.000425794
0.0004465
0.000466496
0.00048569
0.00050399
0.000521298
0.000537518
0.000552557
0.000566329
0.000578756
0.000589776
0.000599349
0.000607461
0.000614126
0.000619399
0.000623372
0.000626187
0.000628014
0.000629072
0.000629562
0.000629727
0.000629698
0.000629666
0.000629596
2.00986e-06
1.81891e-06
2.67887e-06
5.28726e-06
1.10664e-05
2.13794e-05
3.65436e-05
5.59683e-05
7.88579e-05
0.000104589
0.000132696
0.000162799
0.000194562
0.000227685
0.00026189
0.000296918
0.000332529
0.000368502
0.000404638
0.000440758
0.000476703
0.000512331
0.000547518
0.000582149
0.000616119
0.000649326
0.000681674
0.000713066
0.000743406
0.000772595
0.000800535
0.000827127
0.000852273
0.000875878
0.000897855
0.000918124
0.000936621
0.000953298
0.000968136
0.00098114
0.000992354
0.00100185
0.00100976
0.00101623
0.00102144
0.00102557
0.0010288
0.00103122
0.00103293
0.00103383
3.35768e-06
3.02753e-06
4.28461e-06
8.5016e-06
1.8411e-05
3.65436e-05
6.29979e-05
9.56798e-05
0.000132252
0.000171238
0.000211893
0.000253837
0.000296855
0.0003408
0.000385541
0.000430935
0.00047682
0.000523015
0.000569323
0.000615544
0.00066148
0.00070694
0.000751746
0.000795733
0.00083875
0.000880658
0.00092133
0.000960648
0.000998503
0.00103479
0.00106941
0.00110228
0.00113329
0.00116239
0.00118948
0.00121451
0.00123742
0.0012582
0.00127683
0.00129333
0.00130775
0.00132018
0.00133075
0.0013396
0.00134692
0.00135286
0.00135761
0.00136123
0.00136378
0.00136513
5.32431e-06
4.81068e-06
6.60418e-06
1.2964e-05
2.81864e-05
5.59683e-05
9.56798e-05
0.000142941
0.000193324
0.000244391
0.000295284
0.000345858
0.000396228
0.000446582
0.000497091
0.000547869
0.000598956
0.000650312
0.000701834
0.000753365
0.000804711
0.000855657
0.000905981
0.000955461
0.00100388
0.00105106
0.00109679
0.00114092
0.00118331
0.00122382
0.00126234
0.00129876
0.00133301
0.001365
0.00139469
0.00142203
0.00144699
0.00146955
0.00148975
0.00150763
0.00152326
0.00153673
0.0015482
0.00155782
0.00156579
0.00157228
0.00157746
0.00158139
0.00158417
0.00158562
7.9839e-06
7.24486e-06
9.73414e-06
1.87898e-05
4.03367e-05
7.88579e-05
0.000132252
0.000193324
0.000255535
0.000315769
0.000373363
0.000428627
0.000482124
0.000534434
0.000586068
0.000637437
0.000688834
0.000740438
0.000792318
0.000844442
0.000896697
0.000948907
0.00100085
0.00105228
0.00110292
0.00115252
0.00120082
0.00124757
0.00129257
0.0013356
0.00137651
0.00141516
0.00145142
0.00148521
0.00151646
0.00154513
0.00157121
0.00159469
0.00161563
0.00163409
0.00165016
0.00166397
0.00167568
0.00168547
0.00169353
0.00170006
0.00170526
0.00170918
0.00171194
0.00171335
1.13303e-05
1.03345e-05
1.36916e-05
2.59887e-05
5.47211e-05
0.000104589
0.000171238
0.000244391
0.000315769
0.000382107
0.000443292
0.000500237
0.000553977
0.000605432
0.000655371
0.000704423
0.00075309
0.000801754
0.000850676
0.000900004
0.000949777
0.000999937
0.00105034
0.00110079
0.00115102
0.00120073
0.00124961
0.00129735
0.00134364
0.0013882
0.00143076
0.00147111
0.00150904
0.00154442
0.00157712
0.00160709
0.00163429
0.00165872
0.00168043
0.00169949
0.00171603
0.00173018
0.00174212
0.00175204
0.00176018
0.00176673
0.0017719
0.00177577
0.00177848
0.00177986
1.52851e-05
1.40173e-05
1.84225e-05
3.44801e-05
7.11321e-05
0.000132696
0.000211893
0.000295284
0.000373363
0.000443292
0.000505826
0.000562574
0.00061502
0.000664348
0.000711481
0.000757151
0.000801955
0.000846384
0.000890836
0.000935618
0.000980937
0.0010269
0.00107352
0.00112071
0.0011683
0.00121604
0.00126365
0.00131077
0.00135704
0.0014021
0.00144558
0.00148716
0.00152654
0.00156347
0.00159775
0.00162924
0.00165786
0.00168356
0.00170638
0.00172639
0.0017437
0.00175847
0.00177089
0.00178116
0.00178955
0.00179625
0.0018015
0.00180541
0.00180811
0.00180949
1.972e-05
1.81815e-05
2.38184e-05
4.41166e-05
8.93139e-05
0.000162799
0.000253837
0.000345858
0.000428627
0.000500237
0.000562574
0.000617994
0.000668391
0.000715155
0.000759298
0.000801567
0.000842553
0.000882753
0.000922602
0.000962483
0.00100272
0.00104356
0.00108518
0.00112766
0.00117099
0.00121505
0.00125965
0.0013045
0.00134925
0.00139351
0.00143688
0.00147891
0.00151921
0.00155742
0.00159321
0.00162633
0.00165659
0.00168388
0.00170817
0.0017295
0.00174796
0.0017637
0.00177691
0.00178781
0.00179667
0.00180371
0.0018092
0.00181325
0.00181603
0.00181744
2.44833e-05
2.26874e-05
2.97374e-05
5.4712e-05
0.000108989
0.000194562
0.000296855
0.000396228
0.000482124
0.000553977
0.00061502
0.000668391
0.000716345
0.000760432
0.000801708
0.000840906
0.000878564
0.000915113
0.000950941
0.000986414
0.00102188
0.00105768
0.00109408
0.00113132
0.00116955
0.00120882
0.0012491
0.00129024
0.00133199
0.00137403
0.00141596
0.00145733
0.00149766
0.00153648
0.00157336
0.0016079
0.0016398
0.00166882
0.00169482
0.00171777
0.0017377
0.00175473
0.00176904
0.00178085
0.00179043
0.00179801
0.00180389
0.00180821
0.00181115
0.00181264
2.94219e-05
2.73891e-05
3.60252e-05
6.6066e-05
0.000129877
0.000227685
0.0003408
0.000446582
0.000534434
0.000605432
0.000664348
0.000715155
0.000760432
0.00080182
0.000840394
0.00087686
0.000911692
0.000945241
0.000977805
0.00100967
0.00104115
0.00107256
0.00110422
0.00113644
0.0011695
0.00120359
0.00123886
0.00127533
0.00131292
0.00135144
0.0013906
0.00143001
0.00146919
0.00150764
0.00154483
0.00158025
0.00161346
0.00164407
0.0016718
0.00169652
0.00171816
0.00173675
0.00175243
0.00176541
0.00177593
0.00178426
0.00179069
0.00179539
0.00179858
0.00180018
3.43973e-05
3.21499e-05
4.25326e-05
7.79832e-05
0.000151713
0.00026189
0.000385541
0.000497091
0.000586068
0.000655371
0.000711481
0.000759298
0.000801708
0.000840394
0.000876398
0.000910382
0.000942765
0.000973827
0.00100377
0.0010328
0.00106112
0.001089
0.00111671
0.00114458
0.00117293
0.00120207
0.00123226
0.00126369
0.00129645
0.00133054
0.00136583
0.00140206
0.00143886
0.00147575
0.00151221
0.00154766
0.00158153
0.00161332
0.00164256
0.00166899
0.0016924
0.00171271
0.00172998
0.00174434
0.00175603
0.0017653
0.00177244
0.00177765
0.00178116
0.00178292
3.92935e-05
3.68522e-05
4.91271e-05
9.02869e-05
0.000174255
0.000296918
0.000430935
0.000547869
0.000637437
0.000704423
0.000757151
0.000801567
0.000840906
0.00087686
0.000910382
0.000942056
0.000972244
0.00100116
0.00102895
0.00105571
0.00108158
0.0011067
0.00113129
0.00115563
0.00118002
0.0012048
0.0012303
0.00125683
0.00128462
0.00131385
0.00134456
0.00137669
0.00141001
0.00144419
0.00147877
0.00151319
0.00154683
0.00157909
0.00160936
0.00163721
0.00166228
0.00168434
0.0017033
0.00171921
0.00173225
0.00174263
0.00175064
0.00175648
0.0017604
0.00176236
4.40189e-05
4.14011e-05
5.56982e-05
0.000102825
0.000197292
0.000332529
0.00047682
0.000598956
0.000688834
0.00075309
0.000801955
0.000842553
0.000878564
0.000911692
0.000942765
0.000972244
0.0010004
0.0010274
0.00105332
0.0010782
0.0011021
0.00112507
0.00114725
0.00116882
0.00119004
0.0012112
0.00123266
0.00125477
0.00127786
0.00130224
0.00132812
0.0013556
0.00138468
0.00141519
0.00144681
0.00147909
0.00151147
0.00154328
0.00157386
0.00160261
0.00162901
0.00165265
0.00167329
0.00169084
0.00170536
0.001717
0.00172602
0.00173261
0.00173704
0.00173925
4.85045e-05
4.57239e-05
6.21588e-05
0.000115474
0.00022064
0.000368502
0.000523015
0.000650312
0.000740438
0.000801754
0.000846384
0.000882753
0.000915113
0.000945241
0.000973827
0.00100116
0.0010274
0.00105262
0.00107685
0.0011001
0.00112234
0.00114358
0.00116386
0.00118328
0.00120201
0.00122028
0.00123842
0.00125675
0.00127567
0.00129554
0.0013167
0.00133941
0.00136384
0.00139002
0.00141783
0.00144698
0.00147703
0.00150739
0.00153738
0.00156628
0.00159348
0.00161837
0.00164052
0.00165967
0.00167572
0.00168874
0.00169889
0.00170635
0.00171136
0.00171388
5.27002e-05
4.9767e-05
6.84423e-05
0.000128134
0.000244148
0.000404638
0.000569323
0.000701834
0.000792318
0.000850676
0.000890836
0.000922602
0.000950941
0.000977805
0.00100377
0.00102895
0.00105332
0.00107685
0.00109951
0.00112126
0.00114204
0.00116181
0.00118054
0.00119824
0.00121502
0.00123102
0.00124649
0.00126173
0.0012771
0.00129299
0.00130981
0.00132793
0.00134765
0.00136919
0.00139263
0.00141789
0.0014447
0.00147261
0.00150102
0.0015292
0.00155646
0.00158206
0.00160538
0.00162594
0.0016435
0.00165792
0.0016693
0.00167772
0.0016834
0.00168627
5.65696e-05
5.34917e-05
7.44992e-05
0.000140727
0.000267688
0.000440758
0.000615544
0.000753365
0.000844442
0.000900004
0.000935618
0.000962483
0.000986414
0.00100967
0.0010328
0.00105571
0.0010782
0.0011001
0.00112126
0.0011416
0.00116103
0.00117947
0.00119685
0.00121313
0.00122833
0.00124252
0.00125587
0.00126862
0.00128106
0.00129358
0.00130658
0.0013205
0.00133574
0.00135264
0.00137147
0.00139235
0.00141521
0.00143981
0.00146568
0.00149221
0.00151867
0.00154426
0.00156822
0.00158988
0.00160875
0.00162455
0.00163718
0.00164663
0.00165306
0.00165631
6.0085e-05
5.68687e-05
8.02915e-05
0.000153189
0.000291154
0.000476703
0.00066148
0.000804711
0.000896697
0.000949777
0.000980937
0.00100272
0.00102188
0.00104115
0.00106112
0.00108158
0.0011021
0.00112234
0.00114204
0.00116103
0.00117918
0.00119637
0.00121251
0.00122753
0.00124139
0.0012541
0.00126574
0.00127647
0.00128654
0.00129625
0.00130601
0.00131623
0.00132737
0.00133988
0.00135413
0.00137042
0.0013889
0.00140953
0.00143206
0.00145602
0.00148077
0.00150553
0.00152945
0.0015517
0.00157158
0.00158857
0.00160241
0.00161292
0.00162012
0.0016238
6.32233e-05
5.98741e-05
8.5788e-05
0.000165469
0.000314455
0.000512331
0.00070694
0.000855657
0.000948907
0.000999937
0.0010269
0.00104356
0.00105768
0.00107256
0.001089
0.0011067
0.00112507
0.00114358
0.00116181
0.00117947
0.00119637
0.00121236
0.00122732
0.00124116
0.00125381
0.00126523
0.00127544
0.00128452
0.00129264
0.00130005
0.00130708
0.00131414
0.00132167
0.00133015
0.00134007
0.00135182
0.00136574
0.001382
0.00140056
0.00142117
0.00144334
0.0014664
0.00148948
0.00151166
0.00153207
0.00154998
0.00156488
0.00157638
0.00158438
0.00158849
6.59621e-05
6.24855e-05
9.09602e-05
0.000177519
0.00033751
0.000547518
0.000751746
0.000905981
0.00100085
0.00105034
0.00107352
0.00108518
0.00109408
0.00110422
0.00111671
0.00113129
0.00114725
0.00116386
0.00118054
0.00119685
0.00121251
0.00122732
0.00124113
0.00125384
0.00126534
0.00127557
0.0012845
0.00129217
0.00129866
0.00130415
0.00130892
0.00131329
0.0013177
0.00132262
0.00132856
0.00133601
0.00134542
0.00135714
0.00137135
0.001388
0.00140683
0.00142732
0.00144872
0.00147008
0.00149041
0.00150879
0.00152448
0.00153685
0.00154558
0.00155012
6.82769e-05
6.46788e-05
9.57785e-05
0.000189294
0.000360245
0.000582149
0.000795733
0.000955461
0.00105228
0.00110079
0.00112071
0.00112766
0.00113132
0.00113644
0.00114458
0.00115563
0.00116882
0.00118328
0.00119824
0.00121313
0.00122753
0.00124116
0.00125384
0.00126541
0.00127578
0.00128486
0.0012926
0.00129898
0.00130404
0.0013079
0.00131075
0.00131285
0.00131459
0.0013164
0.00131878
0.00132227
0.00132739
0.00133461
0.00134429
0.00135661
0.0013715
0.00138868
0.00140756
0.00142728
0.00144681
0.0014651
0.00148117
0.00149417
0.0015035
0.00150842
7.01388e-05
6.64257e-05
0.00010021
0.000200746
0.000382587
0.000616119
0.00083875
0.00100388
0.00110292
0.00115102
0.0011683
0.00117099
0.00116955
0.0011695
0.00117293
0.00118002
0.00119004
0.00120201
0.00121502
0.00122833
0.00124139
0.00125381
0.00126534
0.00127578
0.00128501
0.00129294
0.0012995
0.00130466
0.0013084
0.00131079
0.00131196
0.00131212
0.00131156
0.00131067
0.00130992
0.00130984
0.00131098
0.0013139
0.00131907
0.00132685
0.00133742
0.00135069
0.00136631
0.00138357
0.00140152
0.00141902
0.00143496
0.00144821
0.00145795
0.00146315
7.15137e-05
6.76932e-05
0.000104217
0.000211823
0.000404462
0.000649326
0.000880658
0.00105106
0.00115252
0.00120073
0.00121604
0.00121505
0.00120882
0.00120359
0.00120207
0.0012048
0.0012112
0.00122028
0.00123102
0.00124252
0.0012541
0.00126523
0.00127557
0.00128486
0.00129294
0.00129971
0.00130508
0.001309
0.00131146
0.00131247
0.00131211
0.00131053
0.00130795
0.00130471
0.0013012
0.00129794
0.00129545
0.00129434
0.00129517
0.00129842
0.00130445
0.00131339
0.00132513
0.00133919
0.00135475
0.00137072
0.00138588
0.00139892
0.00140875
0.00141409
7.23615e-05
6.84418e-05
0.000107755
0.000222466
0.000425794
0.000681674
0.00092133
0.00109679
0.00120082
0.00124961
0.00126365
0.00125965
0.0012491
0.00123886
0.00123226
0.0012303
0.00123266
0.00123842
0.00124649
0.00125587
0.00126574
0.00127544
0.0012845
0.0012926
0.0012995
0.00130508
0.00130923
0.0013119
0.00131306
0.0013127
0.00131087
0.00130766
0.00130325
0.0012979
0.00129195
0.00128583
0.00128008
0.00127526
0.00127198
0.00127082
0.00127226
0.00127663
0.00128404
0.00129427
0.00130669
0.00132034
0.00133401
0.00134627
0.00135579
0.00136106
7.26361e-05
6.86264e-05
0.000110775
0.000232614
0.0004465
0.000713066
0.000960648
0.00114092
0.00124757
0.00129735
0.00131077
0.0013045
0.00129024
0.00127533
0.00126369
0.00125683
0.00125477
0.00125675
0.00126173
0.00126862
0.00127647
0.00128452
0.00129217
0.00129898
0.00130466
0.001309
0.0013119
0.00131328
0.00131309
0.00131132
0.00130802
0.00130322
0.00129707
0.00128977
0.00128158
0.00127289
0.00126416
0.00125595
0.00124884
0.00124347
0.0012404
0.00124011
0.0012429
0.0012488
0.00125743
0.00126801
0.00127944
0.00129025
0.00129899
0.00130393
7.22862e-05
6.81966e-05
0.000113219
0.000242194
0.000466496
0.000743406
0.000998503
0.00118331
0.00129257
0.00134364
0.00135704
0.00134925
0.00133199
0.00131292
0.00129645
0.00128462
0.00127786
0.00127567
0.0012771
0.00128106
0.00128654
0.00129264
0.00129866
0.00130404
0.0013084
0.00131146
0.00131306
0.00131309
0.0013115
0.00130828
0.00130344
0.00129704
0.00128916
0.00127996
0.00126966
0.00125858
0.00124711
0.00123576
0.0012251
0.00121574
0.00120831
0.00120338
0.00120141
0.00120262
0.00120692
0.00121376
0.0012222
0.00123088
0.00123828
0.0012426
7.12563e-05
6.70976e-05
0.000115027
0.000251134
0.00048569
0.000772595
0.00103479
0.00122382
0.0013356
0.0013882
0.0014021
0.00139351
0.00137403
0.00135144
0.00133054
0.00131385
0.00130224
0.00129554
0.00129299
0.00129358
0.00129625
0.00130005
0.00130415
0.0013079
0.00131079
0.00131247
0.0013127
0.00131132
0.00130828
0.00130353
0.0012971
0.00128901
0.00127936
0.00126825
0.00125588
0.00124249
0.00122843
0.00121413
0.00120012
0.001187
0.00117538
0.0011659
0.00115911
0.00115544
0.001155
0.00115752
0.00116229
0.00116813
0.00117363
0.00117697
6.94888e-05
6.52725e-05
0.000116136
0.000259353
0.00050399
0.000800535
0.00106941
0.00126234
0.00137651
0.00143076
0.00144558
0.00143688
0.00141596
0.0013906
0.00136583
0.00134456
0.00132812
0.0013167
0.00130981
0.00130658
0.00130601
0.00130708
0.00130892
0.00131075
0.00131196
0.00131211
0.00131087
0.00130802
0.00130344
0.0012971
0.00128898
0.00127912
0.0012676
0.00125451
0.00124002
0.00122432
0.00120772
0.00119058
0.00117337
0.00115664
0.00114099
0.00112708
0.0011155
0.00110682
0.00110135
0.00109908
0.00109958
0.00110194
0.00110495
0.00110698
6.69263e-05
6.26642e-05
0.000116481
0.000266771
0.000521298
0.000827127
0.00110228
0.00129876
0.00141516
0.00147111
0.00148716
0.00147891
0.00145733
0.00143001
0.00140206
0.00137669
0.0013556
0.00133941
0.00132793
0.0013205
0.00131623
0.00131414
0.00131329
0.00131285
0.00131212
0.00131053
0.00130766
0.00130322
0.00129704
0.00128901
0.00127912
0.00126739
0.00125389
0.00123871
0.00122199
0.00120392
0.00118473
0.00116476
0.00114439
0.00112414
0.00110456
0.00108629
0.00106997
0.00105622
0.00104553
0.0010381
0.00103382
0.00103211
0.0010321
0.00103247
6.3514e-05
5.92185e-05
0.000115999
0.000273307
0.000537518
0.000852273
0.00113329
0.00133301
0.00145142
0.00150904
0.00152654
0.00151921
0.00149766
0.00146919
0.00143886
0.00141001
0.00138468
0.00136384
0.00134765
0.00133574
0.00132737
0.00132167
0.0013177
0.00131459
0.00131156
0.00130795
0.00130325
0.00129707
0.00128916
0.00127936
0.0012676
0.00125389
0.00123828
0.00122087
0.00120178
0.00118118
0.0011593
0.0011364
0.00111284
0.00108905
0.00106556
0.00104297
0.0010219
0.00100302
0.00098694
0.000974077
0.000964597
0.000958296
0.000954764
0.000953158
5.92038e-05
5.48873e-05
0.000114632
0.000278886
0.000552557
0.000875878
0.00116239
0.001365
0.00148521
0.00154442
0.00156347
0.00155742
0.00153648
0.00150764
0.00147575
0.00144419
0.00141519
0.00139002
0.00136919
0.00135264
0.00133988
0.00133015
0.00132262
0.0013164
0.00131067
0.00130471
0.0012979
0.00128977
0.00127996
0.00126825
0.00125451
0.00123871
0.00122087
0.00120107
0.00117945
0.00115615
0.00113138
0.00110538
0.00107847
0.00105104
0.00102354
0.000996541
0.000970653
0.00094654
0.000924905
0.000906334
0.000891276
0.000879935
0.000872437
0.000868561
5.39583e-05
4.96333e-05
0.000112333
0.000283439
0.000566329
0.000897855
0.00118948
0.00139469
0.00151646
0.00157712
0.00159775
0.00159321
0.00157336
0.00154483
0.00151221
0.00147877
0.00144681
0.00141783
0.00139263
0.00137147
0.00135413
0.00134007
0.00132856
0.00131878
0.00130992
0.0013012
0.00129195
0.00128158
0.00126966
0.00125588
0.00124002
0.00122199
0.00120178
0.00117945
0.0011551
0.00112888
0.00110099
0.00107166
0.00104116
0.00100985
0.000978134
0.000946527
0.000915614
0.00088606
0.000858614
0.000834018
0.000812991
0.000796171
0.000784292
0.000777875
4.77557e-05
4.34343e-05
0.000109068
0.000286909
0.000578756
0.000918124
0.00121451
0.00142203
0.00154513
0.00160709
0.00162924
0.00162633
0.0016079
0.00158025
0.00154766
0.00151319
0.00147909
0.00144698
0.00141789
0.00139235
0.00137042
0.00135182
0.00133601
0.00132227
0.00130984
0.00129794
0.00128583
0.00127289
0.00125858
0.00124249
0.00122432
0.00120392
0.00118118
0.00115615
0.00112888
0.00109952
0.00106825
0.00103528
0.00100087
0.000965338
0.000929054
0.000892483
0.000856179
0.000820803
0.000787132
0.000756064
0.000728593
0.000705817
0.000689145
0.00067993
4.05953e-05
3.62893e-05
0.000104823
0.000289258
0.000589776
0.000936621
0.00123742
0.00144699
0.00157121
0.00163429
0.00165786
0.00165659
0.0016398
0.00161346
0.00158153
0.00154683
0.00151147
0.00147703
0.0014447
0.00141521
0.0013889
0.00136574
0.00134542
0.00132739
0.00131098
0.00129545
0.00128008
0.00126416
0.00124711
0.00122843
0.00120772
0.00118473
0.0011593
0.00113138
0.00110099
0.00106825
0.00103331
0.000996359
0.000957641
0.000917438
0.00087609
0.000834017
0.000791742
0.000749921
0.000709382
0.000671188
0.00063665
0.000607379
0.000585511
0.000573275
3.25039e-05
2.82243e-05
9.96103e-05
0.000290469
0.000599349
0.000953298
0.0012582
0.00146955
0.00159469
0.00165872
0.00168356
0.00168388
0.00166882
0.00164407
0.00161332
0.00157909
0.00154328
0.00150739
0.00147261
0.00143981
0.00140953
0.001382
0.00135714
0.00133461
0.0013139
0.00129434
0.00127526
0.00125595
0.00123576
0.00121413
0.00119058
0.00116476
0.0011364
0.00110538
0.00107166
0.00103528
0.000996359
0.000955052
0.000911566
0.000866144
0.000819086
0.000770766
0.000721682
0.000672503
0.000624157
0.000577938
0.000535573
0.000499269
0.000471922
0.00045656
2.35383e-05
1.92953e-05
9.34697e-05
0.000290556
0.000607461
0.000968136
0.00127683
0.00148975
0.00161563
0.00168043
0.00170638
0.00170817
0.00169482
0.0016718
0.00164256
0.00160936
0.00157386
0.00153738
0.00150102
0.00146568
0.00143206
0.00140056
0.00137135
0.00134429
0.00131907
0.00129517
0.00127198
0.00124884
0.0012251
0.00120012
0.00117337
0.00114439
0.00111284
0.00107847
0.00104116
0.00100087
0.000957641
0.000911566
0.000862789
0.000811495
0.00075792
0.000702386
0.000645369
0.000587605
0.000530224
0.00047491
0.000423994
0.000380398
0.000347705
0.000329432
1.37915e-05
9.59398e-06
8.64759e-05
0.00028956
0.000614126
0.00098114
0.00129333
0.00150763
0.00163409
0.00169949
0.00172639
0.0017295
0.00171777
0.00169652
0.00166899
0.00163721
0.00160261
0.00156628
0.0015292
0.00149221
0.00145602
0.00142117
0.001388
0.00135661
0.00132685
0.00129842
0.00127082
0.00124347
0.00121574
0.001187
0.00115664
0.00112414
0.00108905
0.00105104
0.00100985
0.000965338
0.000917438
0.000866144
0.000811495
0.000753573
0.000692512
0.000628569
0.000562229
0.000494398
0.000426625
0.000361287
0.000301599
0.000251277
0.000214278
0.000193923
3.40584e-06
-7.38889e-07
7.87515e-05
0.000287571
0.000619399
0.000992354
0.00130775
0.00152326
0.00165016
0.00171603
0.0017437
0.00174796
0.0017377
0.00171816
0.0016924
0.00166228
0.00162901
0.00159348
0.00155646
0.00151867
0.00148077
0.00144334
0.00140683
0.0013715
0.00133742
0.00130445
0.00127226
0.0012404
0.00120831
0.00117538
0.00114099
0.00110456
0.00106556
0.00102354
0.000978134
0.000929054
0.00087609
0.000819086
0.00075792
0.000692512
0.000622856
0.000549133
0.000471928
0.000392543
0.000313329
0.000237819
0.000170406
0.000115443
7.65442e-05
5.57589e-05
-7.43156e-06
-1.15181e-05
7.04615e-05
0.000284715
0.000623372
0.00100185
0.00132018
0.00153673
0.00166397
0.00173018
0.00175847
0.0017637
0.00175473
0.00173675
0.00171271
0.00168434
0.00165265
0.00161837
0.00158206
0.00154426
0.00150553
0.0014664
0.00142732
0.00138868
0.00135069
0.00131339
0.00127663
0.00124011
0.00120338
0.0011659
0.00112708
0.00108629
0.00104297
0.000996541
0.000946527
0.000892483
0.000834017
0.000770766
0.000702386
0.000628569
0.000549133
0.000464243
0.000374785
0.000282877
0.000192252
0.000108096
3.60107e-05
-1.96555e-05
-5.67826e-05
-7.57327e-05
-1.84748e-05
-2.24998e-05
6.18278e-05
0.000281176
0.000626187
0.00100976
0.00133075
0.0015482
0.00167568
0.00174212
0.00177089
0.00177691
0.00176904
0.00175243
0.00172998
0.0017033
0.00167329
0.00164052
0.00160538
0.00156822
0.00152945
0.00148948
0.00144872
0.00140756
0.00136631
0.00132513
0.00128404
0.0012429
0.00120141
0.00115911
0.0011155
0.00106997
0.0010219
0.000970653
0.000915614
0.000856179
0.000791742
0.000721682
0.000645369
0.000562229
0.000471928
0.000374785
0.000272398
0.000168325
6.83013e-05
-2.06524e-05
-9.23366e-05
-0.000143637
-0.000175123
-0.000190125
-2.94404e-05
-3.3403e-05
5.31077e-05
0.000277165
0.000628014
0.00101623
0.0013396
0.00155782
0.00168547
0.00175204
0.00178116
0.00178781
0.00178085
0.00176541
0.00174434
0.00171921
0.00169084
0.00165967
0.00162594
0.00158988
0.0015517
0.00151166
0.00147008
0.00142728
0.00138357
0.00133919
0.00129427
0.0012488
0.00120262
0.00115544
0.00110682
0.00105622
0.00100302
0.00094654
0.00088606
0.000820803
0.000749921
0.000672503
0.000587605
0.000494398
0.000392543
0.000282877
0.000168325
5.45586e-05
-5.04197e-05
-0.000138375
-0.000203902
-0.000246492
-0.000269908
-0.000279941
-3.99814e-05
-4.38833e-05
4.46196e-05
0.000272954
0.000629072
0.00102144
0.00134692
0.00156579
0.00169353
0.00176018
0.00178955
0.00179667
0.00179043
0.00177593
0.00175603
0.00173225
0.00170536
0.00167572
0.0016435
0.00160875
0.00157158
0.00153207
0.00149041
0.00144681
0.00140152
0.00135475
0.00130669
0.00125743
0.00120692
0.001155
0.00110135
0.00104553
0.00098694
0.000924905
0.000858614
0.000787132
0.000709382
0.000624157
0.000530224
0.000426625
0.000313329
0.000192252
6.83013e-05
-5.04197e-05
-0.000154231
-0.000235218
-0.000290415
-0.000322549
-0.00033792
-0.000343436
-4.97507e-05
-5.3596e-05
3.66788e-05
0.0002688
0.000629562
0.00102557
0.00135286
0.00157228
0.00170006
0.00176673
0.00179625
0.00180371
0.00179801
0.00178426
0.0017653
0.00174263
0.001717
0.00168874
0.00165792
0.00162455
0.00158857
0.00154998
0.00150879
0.0014651
0.00141902
0.00137072
0.00132034
0.00126801
0.00121376
0.00115752
0.00109908
0.0010381
0.000974077
0.000906334
0.000834018
0.000756064
0.000671188
0.000577938
0.00047491
0.000361287
0.000237819
0.000108096
-2.06524e-05
-0.000138375
-0.000235218
-0.000305406
-0.000349297
-0.000372259
-0.00038164
-0.000384091
-5.83328e-05
-6.21282e-05
2.96648e-05
0.00026502
0.000629727
0.0010288
0.00135761
0.00157746
0.00170526
0.0017719
0.0018015
0.0018092
0.00180389
0.00179069
0.00177244
0.00175064
0.00172602
0.00169889
0.0016693
0.00163718
0.00160241
0.00156488
0.00152448
0.00148117
0.00143496
0.00138588
0.00133401
0.00127944
0.0012222
0.00116229
0.00109958
0.00103382
0.000964597
0.000891276
0.000812991
0.000728593
0.00063665
0.000535573
0.000423994
0.000301599
0.000170406
3.60107e-05
-9.23366e-05
-0.000203902
-0.000290415
-0.000349297
-0.000383849
-0.000400692
-0.000406816
-0.000407813
-6.53891e-05
-6.91432e-05
2.38741e-05
0.000261829
0.000629698
0.00103122
0.00136123
0.00158139
0.00170918
0.00177577
0.00180541
0.00181325
0.00180821
0.00179539
0.00177765
0.00175648
0.00173261
0.00170635
0.00167772
0.00164663
0.00161292
0.00157638
0.00153685
0.00149417
0.00144821
0.00139892
0.00134627
0.00129025
0.00123088
0.00116813
0.00110194
0.00103211
0.000958296
0.000879935
0.000796171
0.000705817
0.000607379
0.000499269
0.000380398
0.000251277
0.000115443
-1.96555e-05
-0.000143637
-0.000246492
-0.000322549
-0.000372259
-0.000400692
-0.000414486
-0.000419573
-0.00042033
-7.0467e-05
-7.41904e-05
1.97091e-05
0.000259534
0.000629666
0.00103293
0.00136378
0.00158417
0.00171194
0.00177848
0.00180811
0.00181603
0.00181115
0.00179858
0.00178116
0.0017604
0.00173704
0.00171136
0.0016834
0.00165306
0.00162012
0.00158438
0.00154558
0.0015035
0.00145795
0.00140875
0.00135579
0.00129899
0.00123828
0.00117363
0.00110495
0.0010321
0.000954764
0.000872437
0.000784292
0.000689145
0.000585511
0.000471922
0.000347705
0.000214278
7.65442e-05
-5.67826e-05
-0.000175123
-0.000269908
-0.00033792
-0.00038164
-0.000406816
-0.000419573
-0.000424846
-0.000426038
-7.32543e-05
-7.69879e-05
1.73772e-05
0.000258213
0.000629596
0.00103383
0.00136513
0.00158562
0.00171335
0.00177986
0.00180949
0.00181744
0.00181264
0.00180018
0.00178292
0.00176236
0.00173925
0.00171388
0.00168627
0.00165631
0.0016238
0.00158849
0.00155012
0.00150842
0.00146315
0.00141409
0.00136106
0.00130393
0.0012426
0.00117697
0.00110698
0.00103247
0.000953158
0.000868561
0.000777875
0.00067993
0.000573275
0.00045656
0.000329432
0.000193923
5.57589e-05
-7.57327e-05
-0.000190125
-0.000279941
-0.000343436
-0.000384091
-0.000407813
-0.00042033
-0.000426038
-0.000427691
)
;

boundaryField
{
    bottomWall
    {
        type            zeroGradient;
    }
    leftWall
    {
        type            zeroGradient;
    }
    topSym
    {
        type            symmetryPlane;
    }
    rightSym
    {
        type            symmetryPlane;
    }
    inlet
    {
        type            cyclic;
    }
    outlet
    {
        type            cyclic;
    }
}


// ************************************************************************* //
