/*--------------------------------*- C++ -*----------------------------------*\
| =========                 |                                                 |
| \\      /  F ield         | OpenFOAM: The Open Source CFD Toolbox           |
|  \\    /   O peration     | Version:  v1912                                 |
|   \\  /    A nd           | Website:  www.openfoam.com                      |
|    \\/     M anipulation  |                                                 |
\*---------------------------------------------------------------------------*/
FoamFile
{
    version     2.0;
    format      ascii;
    class       surfaceScalarField;
    location    "5000";
    object      phi;
}
// * * * * * * * * * * * * * * * * * * * * * * * * * * * * * * * * * * * * * //

dimensions      [0 3 -1 0 0 0 0];
oriented        oriented;


internalField   nonuniform List<scalar> 
4900
(
-9.71704e-16
-9.88334e-16
-6.86985e-11
6.86975e-11
-2.69348e-10
2.00649e-10
-7.08186e-10
4.38838e-10
-1.47498e-09
7.66791e-10
-2.54294e-09
1.06796e-09
-3.70844e-09
1.16551e-09
-4.61767e-09
9.09222e-10
-4.87332e-09
2.55651e-10
-4.14942e-09
-7.23901e-10
-2.26209e-09
-1.88732e-09
8.14247e-10
-3.07634e-09
4.97224e-09
-4.158e-09
1.00178e-08
-5.04559e-09
1.57185e-08
-5.70066e-09
2.18425e-08
-6.12397e-09
2.81845e-08
-6.34206e-09
3.45792e-08
-6.39465e-09
4.0904e-08
-6.32483e-09
4.70766e-08
-6.17261e-09
5.30481e-08
-5.97153e-09
5.87955e-08
-5.74731e-09
6.43133e-08
-5.51786e-09
6.96075e-08
-5.29418e-09
7.46888e-08
-5.08131e-09
7.95683e-08
-4.87952e-09
8.42536e-08
-4.6853e-09
8.87457e-08
-4.49208e-09
9.30366e-08
-4.29091e-09
9.71074e-08
-4.07079e-09
1.00926e-07
-3.81904e-09
1.04448e-07
-3.5215e-09
1.07611e-07
-3.16271e-09
1.10337e-07
-2.72615e-09
1.12531e-07
-2.19467e-09
1.14082e-07
-1.55102e-09
1.14862e-07
-7.7976e-10
1.14732e-07
1.3066e-10
1.1354e-07
1.19167e-09
1.11128e-07
2.41211e-09
1.07338e-07
3.78931e-09
1.02027e-07
5.31118e-09
9.50758e-08
6.95147e-09
8.64021e-08
8.67374e-09
7.59772e-08
1.04249e-08
6.38245e-08
1.21528e-08
5.00292e-08
1.37953e-08
3.47032e-08
1.5326e-08
1.79961e-08
1.67071e-08
1.79961e-08
6.86975e-11
-6.86985e-11
6.86975e-11
6.86974e-11
-1.65671e-10
4.35017e-10
-8.27367e-10
1.10053e-09
-2.05857e-09
1.99799e-09
-3.75409e-09
2.76348e-09
-5.43239e-09
2.84381e-09
-6.30508e-09
1.78191e-09
-5.51345e-09
-5.35974e-10
-2.37366e-09
-3.8637e-09
3.47762e-09
-7.7386e-09
1.20548e-08
-1.16535e-08
2.30825e-08
-1.51857e-08
3.60979e-08
-1.8061e-08
5.05574e-08
-2.01601e-08
6.59229e-08
-2.14894e-08
8.17192e-08
-2.21384e-08
9.75638e-08
-2.22392e-08
1.13174e-07
-2.19348e-08
1.28359e-07
-2.1358e-08
1.43008e-07
-2.06205e-08
1.57069e-07
-1.98078e-08
1.70531e-07
-1.89799e-08
1.8341e-07
-1.81735e-08
1.95734e-07
-1.74053e-08
2.07531e-07
-1.66763e-08
2.1882e-07
-1.59742e-08
2.29604e-07
-1.52767e-08
2.39866e-07
-1.45529e-08
2.4956e-07
-1.37651e-08
2.58611e-07
-1.28697e-08
2.66907e-07
-1.18177e-08
2.743e-07
-1.05558e-08
2.80601e-07
-9.02676e-09
2.85577e-07
-7.17117e-09
2.88956e-07
-4.92923e-09
2.90423e-07
-2.24701e-09
2.89637e-07
9.16619e-10
2.86227e-07
4.60144e-09
2.79802e-07
8.83719e-09
2.69975e-07
1.36169e-08
2.56387e-07
1.88983e-08
2.38745e-07
2.45941e-08
2.16842e-07
3.05762e-08
1.906e-07
3.66675e-08
1.60071e-07
4.26812e-08
1.25452e-07
4.84149e-08
8.70188e-08
5.37588e-08
4.51249e-08
5.8601e-08
6.3121e-08
2.00649e-10
-2.69348e-10
4.35017e-10
-1.65671e-10
4.35017e-10
4.35017e-10
-1.04759e-11
1.54603e-09
-1.00269e-09
2.9902e-09
-2.31118e-09
4.07197e-09
-3.17409e-09
3.70672e-09
-2.41535e-09
1.02317e-09
1.181e-09
-4.13233e-09
8.52457e-09
-1.12073e-08
2.00427e-08
-1.92568e-08
3.56686e-08
-2.72794e-08
5.49378e-08
-3.44549e-08
7.71352e-08
-4.02585e-08
1.01442e-07
-4.44668e-08
1.27054e-07
-4.71012e-08
1.5326e-07
-4.83449e-08
1.79486e-07
-4.84654e-08
2.05303e-07
-4.77519e-08
2.3042e-07
-4.64743e-08
2.5466e-07
-4.48607e-08
2.77939e-07
-4.30872e-08
3.00237e-07
-4.12779e-08
3.21573e-07
-3.95093e-08
3.41985e-07
-3.78171e-08
3.61512e-07
-3.62035e-08
3.80181e-07
-3.4643e-08
3.97992e-07
-3.30881e-08
4.14913e-07
-3.14731e-08
4.30864e-07
-2.97167e-08
4.45719e-07
-2.77245e-08
4.59292e-07
-2.53903e-08
4.71333e-07
-2.25973e-08
4.81527e-07
-1.92207e-08
4.89486e-07
-1.51299e-08
4.9475e-07
-1.01932e-08
4.96794e-07
-4.29085e-09
4.9504e-07
2.66996e-09
4.88865e-07
1.07772e-08
4.77606e-07
2.00953e-08
4.6061e-07
3.0613e-08
4.3727e-07
4.22387e-08
4.07078e-07
5.47864e-08
3.6968e-07
6.79741e-08
3.24925e-07
8.14219e-08
2.72894e-07
9.47127e-08
2.13893e-07
1.07416e-07
1.48386e-07
1.19266e-07
7.69518e-08
1.30036e-07
1.40073e-07
4.38838e-10
-7.08186e-10
1.10053e-09
-8.27367e-10
1.54603e-09
-1.04759e-11
1.54603e-09
1.54603e-09
1.19697e-09
3.33926e-09
1.05018e-09
4.21876e-09
2.25391e-09
2.50299e-09
6.34201e-09
-3.06493e-09
1.4723e-08
-1.25134e-08
2.82992e-08
-2.47834e-08
4.73475e-08
-3.83051e-08
7.15803e-08
-5.15121e-08
1.00292e-07
-6.3167e-08
1.32536e-07
-7.2502e-08
1.67279e-07
-7.921e-08
2.0353e-07
-8.33522e-08
2.40418e-07
-8.52327e-08
2.77235e-07
-8.52825e-08
3.13449e-07
-8.39655e-08
3.4869e-07
-8.17161e-08
3.82733e-07
-7.89034e-08
4.15461e-07
-7.58148e-08
4.46838e-07
-7.26549e-08
4.7688e-07
-6.95512e-08
5.05627e-07
-6.65645e-08
5.33122e-07
-6.36989e-08
5.59391e-07
-6.0912e-08
5.84426e-07
-5.81232e-08
6.08173e-07
-5.52194e-08
6.30516e-07
-5.20601e-08
6.51272e-07
-4.84805e-08
6.70176e-07
-4.4294e-08
6.86874e-07
-3.92951e-08
7.00916e-07
-3.32626e-08
7.1175e-07
-2.59645e-08
7.18724e-07
-1.71666e-08
7.21086e-07
-6.65347e-09
7.18012e-07
5.74464e-09
7.08604e-07
2.01848e-08
6.91918e-07
3.6781e-08
6.67013e-07
5.55187e-08
6.33012e-07
7.62396e-08
5.89178e-07
9.86204e-08
5.3499e-07
1.22162e-07
4.70212e-07
1.462e-07
3.94939e-07
1.69986e-07
3.09585e-07
1.92769e-07
2.14801e-07
2.1405e-07
1.11397e-07
2.33439e-07
2.5147e-07
7.66791e-10
-1.47498e-09
1.99799e-09
-2.05857e-09
2.9902e-09
-1.00269e-09
3.33926e-09
1.19697e-09
3.33926e-09
3.33926e-09
4.17869e-09
3.37933e-09
7.76833e-09
-1.08665e-09
1.61136e-08
-1.14102e-08
3.06227e-08
-2.70225e-08
5.18672e-08
-4.60278e-08
7.96916e-08
-6.61296e-08
1.13422e-07
-8.52426e-08
1.52065e-07
-1.0181e-07
1.94478e-07
-1.14915e-07
2.395e-07
-1.24232e-07
2.8605e-07
-1.29903e-07
3.33189e-07
-1.32371e-07
3.80148e-07
-1.32241e-07
4.2634e-07
-1.30158e-07
4.71349e-07
-1.26726e-07
5.14908e-07
-1.22462e-07
5.56868e-07
-1.17775e-07
5.97171e-07
-1.12958e-07
6.35815e-07
-1.08196e-07
6.7283e-07
-1.03579e-07
7.08248e-07
-9.91169e-08
7.42083e-07
-9.47468e-08
7.74309e-07
-9.03493e-08
8.04844e-07
-8.57544e-08
8.33533e-07
-8.07485e-08
8.60131e-07
-7.50788e-08
8.84294e-07
-6.84575e-08
9.05565e-07
-6.05655e-08
9.2336e-07
-5.10581e-08
9.36968e-07
-3.95726e-08
9.45543e-07
-2.57417e-08
9.48113e-07
-9.22343e-09
9.43603e-07
1.02553e-08
9.30846e-07
3.29412e-08
9.08615e-07
5.90126e-08
8.75678e-07
8.84552e-08
8.3089e-07
1.21027e-07
7.73278e-07
1.56233e-07
7.02145e-07
1.93294e-07
6.17161e-07
2.31183e-07
5.18424e-07
2.68724e-07
4.06444e-07
3.04749e-07
2.82049e-07
3.38445e-07
1.46278e-07
3.69211e-07
3.97748e-07
1.06796e-09
-2.54294e-09
2.76348e-09
-3.75409e-09
4.07197e-09
-2.31118e-09
4.21876e-09
1.05018e-09
3.37933e-09
4.17869e-09
3.37933e-09
3.37933e-09
7.33732e-09
-5.04464e-09
1.8203e-08
-2.22759e-08
3.75558e-08
-4.63753e-08
6.55426e-08
-7.40146e-08
1.01405e-07
-1.01992e-07
1.43953e-07
-1.27791e-07
1.91847e-07
-1.49705e-07
2.43749e-07
-1.66816e-07
2.984e-07
-1.78884e-07
3.54674e-07
-1.86176e-07
4.11601e-07
-1.89297e-07
4.68379e-07
-1.8902e-07
5.24384e-07
-1.86163e-07
5.79151e-07
-1.81492e-07
6.32359e-07
-1.75671e-07
6.83812e-07
-1.69228e-07
7.33404e-07
-1.62549e-07
7.81092e-07
-1.55884e-07
8.26869e-07
-1.49357e-07
8.70738e-07
-1.42986e-07
9.12681e-07
-1.36689e-07
9.52639e-07
-1.30308e-07
9.90493e-07
-1.23608e-07
1.02604e-06
-1.16292e-07
1.05896e-06
-1.08007e-07
1.08885e-06
-9.83441e-08
1.11514e-06
-8.68498e-08
1.13711e-06
-7.30305e-08
1.1539e-06
-5.63652e-08
1.16448e-06
-3.63241e-08
1.16767e-06
-1.24091e-08
1.16214e-06
1.57844e-08
1.14647e-06
4.86121e-08
1.11915e-06
8.6331e-08
1.07867e-06
1.28931e-07
1.02363e-06
1.76075e-07
9.52799e-07
2.2706e-07
8.65321e-07
2.80773e-07
7.6076e-07
3.35744e-07
6.3921e-07
3.90274e-07
5.01268e-07
4.42691e-07
3.47932e-07
4.9178e-07
1.80463e-07
5.3668e-07
5.78211e-07
1.16551e-09
-3.70844e-09
2.84381e-09
-5.43239e-09
3.70672e-09
-3.17409e-09
2.50299e-09
2.25391e-09
-1.08665e-09
7.76833e-09
-5.04464e-09
7.33732e-09
-5.04464e-09
-5.04464e-09
3.34732e-09
-3.06678e-08
2.26174e-08
-6.56454e-08
5.30337e-08
-1.04431e-07
9.34646e-08
-1.42423e-07
1.42208e-07
-1.76535e-07
1.97481e-07
-2.04977e-07
2.57627e-07
-2.26962e-07
3.21185e-07
-2.42442e-07
3.86896e-07
-2.51888e-07
4.53695e-07
-2.56096e-07
5.20697e-07
-2.56022e-07
5.87191e-07
-2.52657e-07
6.52625e-07
-2.46926e-07
7.16588e-07
-2.39634e-07
7.78792e-07
-2.31432e-07
8.39047e-07
-2.22803e-07
8.97233e-07
-2.14069e-07
9.53274e-07
-2.05399e-07
1.00711e-06
-1.96823e-07
1.05867e-06
-1.8825e-07
1.10784e-06
-1.7948e-07
1.15445e-06
-1.70217e-07
1.19823e-06
-1.60074e-07
1.23881e-06
-1.48585e-07
1.27568e-06
-1.35209e-07
1.30817e-06
-1.19339e-07
1.33545e-06
-1.0031e-07
1.3565e-06
-7.74172e-08
1.37012e-06
-4.99417e-08
1.37491e-06
-1.72004e-08
1.36932e-06
2.13726e-08
1.35167e-06
6.62591e-08
1.32019e-06
1.17809e-07
1.2731e-06
1.76023e-07
1.20872e-06
2.40455e-07
1.12562e-06
3.10166e-07
1.02274e-06
3.83651e-07
8.99554e-07
4.58928e-07
7.56146e-07
5.33682e-07
5.93196e-07
6.05641e-07
4.11873e-07
6.73103e-07
2.13669e-07
7.34884e-07
7.9188e-07
9.09222e-10
-4.61767e-09
1.78191e-09
-6.30508e-09
1.02317e-09
-2.41535e-09
-3.06493e-09
6.34201e-09
-1.14102e-08
1.61136e-08
-2.22759e-08
1.8203e-08
-3.06678e-08
3.34732e-09
-3.06678e-08
-3.06678e-08
-1.81893e-08
-7.8124e-08
8.10874e-09
-1.30729e-07
4.74461e-08
-1.8176e-07
9.79437e-08
-2.27032e-07
1.57401e-07
-2.64435e-07
2.23711e-07
-2.93272e-07
2.95019e-07
-3.1375e-07
3.69753e-07
-3.26622e-07
4.46601e-07
-3.32943e-07
5.24476e-07
-3.33898e-07
6.02493e-07
-3.30674e-07
6.79937e-07
-3.2437e-07
7.56249e-07
-3.15946e-07
8.30999e-07
-3.06182e-07
9.03867e-07
-2.95671e-07
9.74614e-07
-2.84817e-07
1.04306e-06
-2.73842e-07
1.10904e-06
-2.62804e-07
1.1724e-06
-2.5161e-07
1.23294e-06
-2.40027e-07
1.29043e-06
-2.27698e-07
1.3445e-06
-2.14147e-07
1.39471e-06
-1.98791e-07
1.44044e-06
-1.80946e-07
1.48094e-06
-1.59836e-07
1.51524e-06
-1.34607e-07
1.54217e-06
-1.04349e-07
1.56035e-06
-6.81277e-08
1.5682e-06
-2.50488e-08
1.56393e-06
2.56441e-08
1.54562e-06
8.45755e-08
1.51122e-06
1.52202e-07
1.45871e-06
2.28539e-07
1.38614e-06
3.13025e-07
1.29185e-06
4.04453e-07
1.17462e-06
5.00876e-07
1.03383e-06
5.99727e-07
8.69527e-07
6.9798e-07
6.82493e-07
7.92674e-07
4.74072e-07
8.81524e-07
2.46001e-07
9.62955e-07
1.03788e-06
2.55651e-10
-4.87332e-09
-5.35974e-10
-5.51345e-09
-4.13233e-09
1.181e-09
-1.25134e-08
1.4723e-08
-2.70225e-08
3.06227e-08
-4.63753e-08
3.75558e-08
-6.56454e-08
2.26174e-08
-7.8124e-08
-1.81893e-08
-7.8124e-08
-7.8124e-08
-6.25402e-08
-1.46313e-07
-3.08807e-08
-2.13419e-07
1.55277e-08
-2.73441e-07
7.44537e-08
-3.23361e-07
1.43428e-07
-3.62247e-07
2.20116e-07
-3.90437e-07
3.02465e-07
-4.0897e-07
3.88738e-07
-4.19216e-07
4.77491e-07
-4.22652e-07
5.67539e-07
-4.20722e-07
6.57914e-07
-4.14745e-07
7.47834e-07
-4.05866e-07
8.36673e-07
-3.95021e-07
9.23933e-07
-3.8293e-07
1.00921e-06
-3.70095e-07
1.09218e-06
-3.56809e-07
1.17254e-06
-3.43168e-07
1.25002e-06
-3.29087e-07
1.3243e-06
-3.14311e-07
1.39503e-06
-2.98428e-07
1.46176e-06
-2.80874e-07
1.52392e-06
-2.60949e-07
1.58079e-06
-2.37818e-07
1.63148e-06
-2.10527e-07
1.67489e-06
-1.7802e-07
1.70971e-06
-1.39161e-07
1.73436e-06
-9.27812e-08
1.74706e-06
-3.77493e-08
1.74579e-06
2.69099e-08
1.72839e-06
1.01978e-07
1.69256e-06
1.8803e-07
1.636e-06
2.85102e-07
1.55652e-06
3.92507e-07
1.45223e-06
5.0874e-07
1.32175e-06
6.31364e-07
1.16432e-06
7.57149e-07
9.8003e-07
8.82273e-07
7.69722e-07
1.00298e-06
5.34934e-07
1.11631e-06
2.77671e-07
1.22022e-06
1.31555e-06
-7.23901e-10
-4.14942e-09
-3.8637e-09
-2.37366e-09
-1.12073e-08
8.52457e-09
-2.47834e-08
2.82992e-08
-4.60278e-08
5.18672e-08
-7.40146e-08
6.55426e-08
-1.04431e-07
5.30337e-08
-1.30729e-07
8.10874e-09
-1.46313e-07
-6.25402e-08
-1.46313e-07
-1.46313e-07
-1.2835e-07
-2.31382e-07
-9.23514e-08
-3.0944e-07
-3.98489e-08
-3.75863e-07
2.67795e-08
-4.28875e-07
1.04897e-07
-4.68555e-07
1.91964e-07
-4.96037e-07
2.85708e-07
-5.1296e-07
3.84181e-07
-5.21125e-07
4.85754e-07
-5.22294e-07
5.89084e-07
-5.18075e-07
6.93075e-07
-5.09856e-07
7.96832e-07
-4.98778e-07
8.99625e-07
-4.85724e-07
1.00085e-06
-4.71321e-07
1.09999e-06
-4.55952e-07
1.19659e-06
-4.39769e-07
1.29021e-06
-4.22706e-07
1.3804e-06
-4.04494e-07
1.46664e-06
-3.84669e-07
1.54835e-06
-3.62587e-07
1.62483e-06
-3.37426e-07
1.69521e-06
-3.08198e-07
1.75845e-06
-2.73765e-07
1.81328e-06
-2.32853e-07
1.85821e-06
-1.84089e-07
1.89148e-06
-1.2605e-07
1.91108e-06
-5.7348e-08
1.91475e-06
2.32369e-08
1.90007e-06
1.16657e-07
1.86449e-06
2.23614e-07
1.80542e-06
3.44168e-07
1.72043e-06
4.77495e-07
1.60741e-06
6.21765e-07
1.46478e-06
7.73993e-07
1.29171e-06
9.30218e-07
1.08826e-06
1.08572e-06
8.55383e-07
1.23586e-06
5.9482e-07
1.37687e-06
3.08869e-07
1.50617e-06
1.62442e-06
-1.88732e-09
-2.26209e-09
-7.7386e-09
3.47762e-09
-1.92568e-08
2.00427e-08
-3.83051e-08
4.73475e-08
-6.61296e-08
7.96916e-08
-1.01992e-07
1.01405e-07
-1.42423e-07
9.34646e-08
-1.8176e-07
4.74461e-08
-2.13419e-07
-3.08807e-08
-2.31382e-07
-1.2835e-07
-2.31382e-07
-2.31382e-07
-2.11404e-07
-3.29417e-07
-1.71508e-07
-4.1576e-07
-1.13258e-07
-4.87125e-07
-3.90861e-08
-5.42727e-07
4.82435e-08
-5.83367e-07
1.45994e-07
-6.1071e-07
2.51658e-07
-6.26789e-07
3.6305e-07
-6.33686e-07
4.7832e-07
-6.33345e-07
5.95933e-07
-6.27469e-07
7.14626e-07
-6.17471e-07
8.33361e-07
-6.04459e-07
9.51274e-07
-5.89234e-07
1.06763e-06
-5.72304e-07
1.18176e-06
-5.53901e-07
1.29305e-06
-5.33995e-07
1.40086e-06
-5.12312e-07
1.50454e-06
-4.88343e-07
1.60331e-06
-4.6136e-07
1.6963e-06
-4.30418e-07
1.78248e-06
-3.94372e-07
1.8606e-06
-3.51887e-07
1.92921e-06
-3.01464e-07
1.98659e-06
-2.41476e-07
2.03078e-06
-1.70233e-07
2.0595e-06
-8.60698e-08
2.07024e-06
1.24967e-08
2.06029e-06
1.26607e-07
2.02682e-06
2.57086e-07
1.96696e-06
4.04022e-07
1.87802e-06
5.6644e-07
1.75763e-06
7.42152e-07
1.60405e-06
9.27572e-07
1.41635e-06
1.11792e-06
1.19457e-06
1.3075e-06
9.39789e-07
1.49064e-06
6.53964e-07
1.6627e-06
3.39722e-07
1.82041e-06
1.96414e-06
-3.07634e-09
8.14247e-10
-1.16535e-08
1.20548e-08
-2.72794e-08
3.56686e-08
-5.15121e-08
7.15803e-08
-8.52426e-08
1.13422e-07
-1.27791e-07
1.43953e-07
-1.76535e-07
1.42208e-07
-2.27032e-07
9.79437e-08
-2.73441e-07
1.55277e-08
-3.0944e-07
-9.23514e-08
-3.29417e-07
-2.11404e-07
-3.29417e-07
-3.29417e-07
-3.07549e-07
-4.37628e-07
-2.63859e-07
-5.30814e-07
-1.99876e-07
-6.06711e-07
-1.18046e-07
-6.65197e-07
-2.12416e-08
-7.07514e-07
8.76127e-08
-7.35644e-07
2.05774e-07
-7.51848e-07
3.30803e-07
-7.58374e-07
4.60605e-07
-7.57271e-07
5.93423e-07
-7.5029e-07
7.27798e-07
-7.38834e-07
8.62514e-07
-7.23949e-07
9.96539e-07
-7.06329e-07
1.12897e-06
-6.8633e-07
1.25896e-06
-6.6399e-07
1.3857e-06
-6.39047e-07
1.50831e-06
-6.10959e-07
1.62586e-06
-5.7891e-07
1.73728e-06
-5.4183e-07
1.84131e-06
-4.98404e-07
1.93651e-06
-4.47088e-07
2.02119e-06
-3.86142e-07
2.09338e-06
-3.13671e-07
2.15085e-06
-2.27694e-07
2.19103e-06
-1.26259e-07
2.21113e-06
-7.59676e-09
2.2081e-06
1.29637e-07
2.1788e-06
2.86386e-07
2.12006e-06
4.6276e-07
2.02888e-06
6.57617e-07
1.90266e-06
8.68373e-07
1.73946e-06
1.09078e-06
1.53822e-06
1.31916e-06
1.29901e-06
1.54671e-06
1.02301e-06
1.76664e-06
7.1243e-07
1.97328e-06
3.70271e-07
2.16257e-06
2.33441e-06
-4.158e-09
4.97224e-09
-1.51857e-08
2.30825e-08
-3.44549e-08
5.49378e-08
-6.3167e-08
1.00292e-07
-1.0181e-07
1.52065e-07
-1.49705e-07
1.91847e-07
-2.04977e-07
1.97481e-07
-2.64435e-07
1.57401e-07
-3.23361e-07
7.44537e-08
-3.75863e-07
-3.98489e-08
-4.1576e-07
-1.71508e-07
-4.37628e-07
-3.07549e-07
-4.37628e-07
-4.37628e-07
-4.13871e-07
-5.54571e-07
-3.66335e-07
-6.54247e-07
-2.96482e-07
-7.3505e-07
-2.06761e-07
-7.97235e-07
-1.00135e-07
-8.4227e-07
2.02962e-08
-8.72279e-07
1.51557e-07
-8.89634e-07
2.90946e-07
-8.96661e-07
4.36108e-07
-8.95451e-07
5.85033e-07
-8.87759e-07
7.3603e-07
-8.74946e-07
8.87667e-07
-8.57967e-07
1.03871e-06
-8.37371e-07
1.18804e-06
-8.13319e-07
1.3346e-06
-7.85604e-07
1.47731e-06
-7.53669e-07
1.61502e-06
-7.16624e-07
1.74646e-06
-6.73268e-07
1.87016e-06
-6.22105e-07
1.98444e-06
-5.61366e-07
2.08734e-06
-4.89046e-07
2.17662e-06
-4.02955e-07
2.24973e-06
-3.00804e-07
2.3038e-06
-1.80325e-07
2.33565e-06
-3.94513e-08
2.3419e-06
1.23392e-07
2.31903e-06
3.09256e-07
2.26352e-06
5.18264e-07
2.17205e-06
7.49086e-07
2.04173e-06
9.98693e-07
1.8704e-06
1.26211e-06
1.6569e-06
1.53266e-06
1.40128e-06
1.80233e-06
1.10485e-06
2.06307e-06
7.70108e-07
2.30802e-06
4.00465e-07
2.53221e-06
2.73488e-06
-5.04559e-09
1.00178e-08
-1.8061e-08
3.60979e-08
-4.02585e-08
7.71352e-08
-7.2502e-08
1.32536e-07
-1.14915e-07
1.94478e-07
-1.66816e-07
2.43749e-07
-2.26962e-07
2.57627e-07
-2.93272e-07
2.23711e-07
-3.62247e-07
1.43428e-07
-4.28875e-07
2.67795e-08
-4.87125e-07
-1.13258e-07
-5.30814e-07
-2.63859e-07
-5.54571e-07
-4.13871e-07
-5.54571e-07
-5.54571e-07
-5.28874e-07
-6.79944e-07
-4.77367e-07
-7.86557e-07
-4.01437e-07
-8.73165e-07
-3.03525e-07
-9.40182e-07
-1.86673e-07
-9.89132e-07
-5.41424e-08
-1.02216e-06
9.08605e-08
-1.04166e-06
2.45368e-07
-1.04996e-06
4.06742e-07
-1.04913e-06
5.72691e-07
-1.0409e-06
7.41254e-07
-1.02653e-06
9.10739e-07
-1.00686e-06
1.07965e-06
-9.82232e-07
1.24662e-06
-9.52569e-07
1.41029e-06
-9.17344e-07
1.56929e-06
-8.75625e-07
1.72211e-06
-8.2609e-07
1.86707e-06
-7.67057e-07
2.00222e-06
-6.96516e-07
2.12534e-06
-6.1217e-07
2.23389e-06
-5.11504e-07
2.32497e-06
-3.91886e-07
2.39535e-06
-2.50701e-07
2.44146e-06
-8.55603e-08
2.45948e-06
1.05374e-07
2.44548e-06
3.2325e-07
2.39555e-06
5.68196e-07
2.30597e-06
8.38664e-07
2.17353e-06
1.13113e-06
1.99582e-06
1.43982e-06
1.77155e-06
1.75694e-06
1.50074e-06
2.07314e-06
1.18486e-06
2.37895e-06
8.26708e-07
2.66617e-06
4.30163e-07
2.92876e-06
3.16504e-06
-5.70066e-09
1.57185e-08
-2.01601e-08
5.05574e-08
-4.44668e-08
1.01442e-07
-7.921e-08
1.67279e-07
-1.24232e-07
2.395e-07
-1.78884e-07
2.984e-07
-2.42442e-07
3.21185e-07
-3.1375e-07
2.95019e-07
-3.90437e-07
2.20116e-07
-4.68555e-07
1.04897e-07
-5.42727e-07
-3.90861e-08
-6.06711e-07
-1.99876e-07
-6.54247e-07
-3.66335e-07
-6.79944e-07
-5.28874e-07
-6.79944e-07
-6.79944e-07
-6.52229e-07
-8.14272e-07
-5.96583e-07
-9.2881e-07
-5.14317e-07
-1.02245e-06
-4.07854e-07
-1.0956e-06
-2.80304e-07
-1.14971e-06
-1.35088e-07
-1.18688e-06
2.43621e-08
-1.20941e-06
1.94803e-07
-1.21957e-06
3.73289e-07
-1.21938e-06
5.57216e-07
-1.21046e-06
7.44306e-07
-1.19395e-06
9.32554e-07
-1.17048e-06
1.12015e-06
-1.14016e-06
1.30539e-06
-1.10258e-06
1.48658e-06
-1.05682e-06
1.66196e-06
-1.00146e-06
1.82957e-06
-9.34667e-07
1.98722e-06
-8.54171e-07
2.13242e-06
-7.57368e-07
2.2623e-06
-6.41384e-07
2.37361e-06
-5.03198e-07
2.46272e-06
-3.3981e-07
2.52563e-06
-1.48469e-07
2.55804e-06
7.2964e-08
2.55555e-06
3.25743e-07
2.51375e-06
6.09989e-07
2.42851e-06
9.23906e-07
2.29622e-06
1.26342e-06
2.11418e-06
1.62186e-06
1.8809e-06
1.99022e-06
1.59641e-06
2.35763e-06
1.26232e-06
2.71304e-06
8.81757e-07
3.04673e-06
4.59128e-07
3.35139e-06
3.62417e-06
-6.12397e-09
2.18425e-08
-2.14894e-08
6.59229e-08
-4.71012e-08
1.27054e-07
-8.33522e-08
2.0353e-07
-1.29903e-07
2.8605e-07
-1.86176e-07
3.54674e-07
-2.51888e-07
3.86896e-07
-3.26622e-07
3.69753e-07
-4.0897e-07
3.02465e-07
-4.96037e-07
1.91964e-07
-5.83367e-07
4.82435e-08
-6.65197e-07
-1.18046e-07
-7.3505e-07
-2.96482e-07
-7.86557e-07
-4.77367e-07
-8.14272e-07
-6.52229e-07
-8.14272e-07
-8.14272e-07
-7.84441e-07
-9.58641e-07
-7.24454e-07
-1.08243e-06
-6.35537e-07
-1.18451e-06
-5.20094e-07
-1.26516e-06
-3.81301e-07
-1.32567e-06
-2.22732e-07
-1.36798e-06
-4.80498e-08
-1.39425e-06
1.39208e-07
-1.40664e-06
3.35764e-07
-1.40701e-06
5.38661e-07
-1.39684e-06
7.45251e-07
-1.37707e-06
9.53153e-07
-1.34807e-06
1.16017e-06
-1.3096e-06
1.3642e-06
-1.26084e-06
1.5631e-06
-1.20037e-06
1.75463e-06
-1.1262e-06
1.93631e-06
-1.03584e-06
2.10532e-06
-9.26386e-07
2.25851e-06
-7.94565e-07
2.39224e-06
-6.36932e-07
2.50248e-06
-4.50048e-07
2.58476e-06
-2.30749e-07
2.63427e-06
2.34518e-08
2.64606e-06
3.13953e-07
2.61519e-06
6.40854e-07
2.53701e-06
1.00209e-06
2.40744e-06
1.39299e-06
2.22344e-06
1.80587e-06
1.98329e-06
2.23036e-06
1.68697e-06
2.65395e-06
1.33624e-06
3.06378e-06
9.34593e-07
3.44838e-06
4.87025e-07
3.79896e-06
4.11119e-06
-6.34206e-09
2.81845e-08
-2.21384e-08
8.17192e-08
-4.83449e-08
1.5326e-07
-8.52327e-08
2.40418e-07
-1.32371e-07
3.33189e-07
-1.89297e-07
4.11601e-07
-2.56096e-07
4.53695e-07
-3.32943e-07
4.46601e-07
-4.19216e-07
3.88738e-07
-5.1296e-07
2.85708e-07
-6.1071e-07
1.45994e-07
-7.07514e-07
-2.12416e-08
-7.97235e-07
-2.06761e-07
-8.73165e-07
-4.01437e-07
-9.2881e-07
-5.96583e-07
-9.58641e-07
-7.84441e-07
-9.58641e-07
-9.58641e-07
-9.26578e-07
-1.1145e-06
-8.62007e-07
-1.24908e-06
-7.66067e-07
-1.3611e-06
-6.4114e-07
-1.4506e-06
-4.90471e-07
-1.51865e-06
-3.17791e-07
-1.56693e-06
-1.27009e-07
-1.59742e-06
7.80229e-08
-1.61205e-06
2.93661e-07
-1.61248e-06
5.16543e-07
-1.59995e-06
7.43594e-07
-1.57512e-06
9.71983e-07
-1.53799e-06
1.19905e-06
-1.48791e-06
1.42217e-06
-1.4235e-06
1.6387e-06
-1.34273e-06
1.84578e-06
-1.24293e-06
2.04028e-06
-1.12088e-06
2.21867e-06
-9.72954e-07
2.37697e-06
-7.95231e-07
2.51071e-06
-5.83787e-07
2.61495e-06
-3.3499e-07
2.68434e-06
-4.59423e-08
2.71333e-06
2.84963e-07
2.69639e-06
6.57801e-07
2.62824e-06
1.07024e-06
2.50431e-06
1.51692e-06
2.32109e-06
1.98909e-06
2.0766e-06
2.47486e-06
1.77071e-06
2.95983e-06
1.40533e-06
3.42915e-06
9.84349e-07
3.86937e-06
5.13416e-07
4.26989e-06
4.62461e-06
-6.39465e-09
3.45792e-08
-2.22392e-08
9.75638e-08
-4.84654e-08
1.79486e-07
-8.52825e-08
2.77235e-07
-1.32241e-07
3.80148e-07
-1.8902e-07
4.68379e-07
-2.56022e-07
5.20697e-07
-3.33898e-07
5.24476e-07
-4.22652e-07
4.77491e-07
-5.21125e-07
3.84181e-07
-6.26789e-07
2.51658e-07
-7.35644e-07
8.76127e-08
-8.4227e-07
-1.00135e-07
-9.40182e-07
-3.03525e-07
-1.02245e-06
-5.14317e-07
-1.08243e-06
-7.24454e-07
-1.1145e-06
-9.26578e-07
-1.1145e-06
-1.1145e-06
-1.08007e-06
-1.28352e-06
-1.01063e-06
-1.43054e-06
-9.07229e-07
-1.554e-06
-7.72239e-07
-1.65364e-06
-6.08973e-07
-1.7302e-06
-4.21336e-07
-1.78506e-06
-2.13504e-07
-1.81988e-06
1.03251e-08
-1.83631e-06
2.46094e-07
-1.83572e-06
4.89979e-07
-1.819e-06
7.38404e-07
-1.78642e-06
9.88006e-07
-1.73751e-06
1.23555e-06
-1.67104e-06
1.47782e-06
-1.585e-06
1.7115e-06
-1.4766e-06
1.93302e-06
-1.3424e-06
2.13846e-06
-1.17839e-06
2.32343e-06
-9.80204e-07
2.48304e-06
-7.43392e-07
2.61185e-06
-4.63798e-07
2.70396e-06
-1.38057e-07
2.75319e-06
2.35736e-07
2.75334e-06
6.5765e-07
2.69849e-06
1.12509e-06
2.58342e-06
1.63199e-06
2.40412e-06
2.16839e-06
2.15825e-06
2.72073e-06
1.84554e-06
3.27254e-06
1.468e-06
3.80669e-06
1.02995e-06
4.30742e-06
5.37749e-07
4.76209e-06
5.16236e-06
-6.32483e-09
4.0904e-08
-2.19348e-08
1.13174e-07
-4.77519e-08
2.05303e-07
-8.39655e-08
3.13449e-07
-1.30158e-07
4.2634e-07
-1.86163e-07
5.24384e-07
-2.52657e-07
5.87191e-07
-3.30674e-07
6.02493e-07
-4.20722e-07
5.67539e-07
-5.22294e-07
4.85754e-07
-6.33686e-07
3.6305e-07
-7.51848e-07
2.05774e-07
-8.72279e-07
2.02962e-08
-9.89132e-07
-1.86673e-07
-1.0956e-06
-4.07854e-07
-1.18451e-06
-6.35537e-07
-1.24908e-06
-8.62007e-07
-1.28352e-06
-1.08007e-06
-1.28352e-06
-1.28352e-06
-1.24656e-06
-1.4675e-06
-1.17192e-06
-1.62863e-06
-1.06057e-06
-1.76499e-06
-9.14862e-07
-1.87591e-06
-7.38196e-07
-1.96172e-06
-5.34674e-07
-2.0234e-06
-3.0877e-07
-2.06221e-06
-6.50748e-08
-2.07942e-06
1.91887e-07
-2.07596e-06
4.57757e-07
-2.05229e-06
7.28374e-07
-2.00812e-06
9.9974e-07
-1.94241e-06
1.26794e-06
-1.8532e-06
1.52903e-06
-1.73769e-06
1.77888e-06
-1.59226e-06
2.01309e-06
-1.4126e-06
2.22679e-06
-1.19391e-06
2.41461e-06
-9.31214e-07
2.57062e-06
-6.19804e-07
2.68835e-06
-2.55788e-07
2.76096e-06
1.63127e-07
2.78156e-06
6.37052e-07
2.7435e-06
1.16314e-06
2.64087e-06
1.73462e-06
2.46904e-06
2.34022e-06
2.22523e-06
2.96454e-06
1.90895e-06
3.58882e-06
1.52233e-06
4.19332e-06
1.07007e-06
4.75968e-06
5.59349e-07
5.27281e-06
5.72171e-06
-6.17261e-09
4.70766e-08
-2.1358e-08
1.28359e-07
-4.64743e-08
2.3042e-07
-8.17161e-08
3.4869e-07
-1.26726e-07
4.71349e-07
-1.81492e-07
5.79151e-07
-2.46926e-07
6.52625e-07
-3.2437e-07
6.79937e-07
-4.14745e-07
6.57914e-07
-5.18075e-07
5.89084e-07
-6.33345e-07
4.7832e-07
-7.58374e-07
3.30803e-07
-8.89634e-07
1.51557e-07
-1.02216e-06
-5.41424e-08
-1.14971e-06
-2.80304e-07
-1.26516e-06
-5.20094e-07
-1.3611e-06
-7.66067e-07
-1.43054e-06
-1.01063e-06
-1.4675e-06
-1.24656e-06
-1.4675e-06
-1.4675e-06
-1.42783e-06
-1.6683e-06
-1.34763e-06
-1.84518e-06
-1.22778e-06
-1.99577e-06
-1.07062e-06
-2.11888e-06
-8.79677e-07
-2.21434e-06
-6.59274e-07
-2.28262e-06
-4.14226e-07
-2.32446e-06
-1.49574e-07
-2.34062e-06
1.29619e-07
-2.33148e-06
4.18375e-07
-2.29688e-06
7.11842e-07
-2.23587e-06
1.00527e-06
-2.14663e-06
1.29394e-06
-2.02636e-06
1.57302e-06
-1.87134e-06
1.83745e-06
-1.67703e-06
2.0818e-06
-1.43826e-06
2.30015e-06
-1.14956e-06
2.48599e-06
-8.05648e-07
2.63229e-06
-4.02084e-07
2.73152e-06
6.38897e-08
2.77608e-06
5.92497e-07
2.75854e-06
1.18068e-06
2.67224e-06
1.82092e-06
2.51184e-06
2.50062e-06
2.27402e-06
3.20236e-06
1.95804e-06
3.9048e-06
1.56604e-06
4.58532e-06
1.10316e-06
5.22256e-06
5.77413e-07
5.79855e-06
6.29912e-06
-5.97153e-09
5.30481e-08
-2.06205e-08
1.43008e-07
-4.48607e-08
2.5466e-07
-7.89034e-08
3.82733e-07
-1.22462e-07
5.14908e-07
-1.75671e-07
6.32359e-07
-2.39634e-07
7.16588e-07
-3.15946e-07
7.56249e-07
-4.05866e-07
7.47834e-07
-5.09856e-07
6.93075e-07
-6.27469e-07
5.95933e-07
-7.57271e-07
4.60605e-07
-8.96661e-07
2.90946e-07
-1.04166e-06
9.08605e-08
-1.18688e-06
-1.35088e-07
-1.32567e-06
-3.81301e-07
-1.4506e-06
-6.4114e-07
-1.554e-06
-9.07229e-07
-1.62863e-06
-1.17192e-06
-1.6683e-06
-1.42783e-06
-1.6683e-06
-1.6683e-06
-1.62572e-06
-1.88776e-06
-1.53956e-06
-2.08193e-06
-1.41059e-06
-2.24785e-06
-1.2412e-06
-2.38374e-06
-1.03504e-06
-2.48878e-06
-7.96709e-07
-2.56279e-06
-5.31422e-07
-2.6059e-06
-2.44735e-07
-2.61817e-06
5.76569e-08
-2.59927e-06
3.70053e-07
-2.54827e-06
6.86794e-07
-2.46337e-06
1.00224e-06
-2.34181e-06
1.31071e-06
-2.17981e-06
1.60635e-06
-1.97266e-06
1.88297e-06
-1.71489e-06
2.13399e-06
-1.40058e-06
2.35227e-06
-1.02393e-06
2.53011e-06
-5.79919e-07
2.6593e-06
-6.53082e-08
2.73147e-06
5.2033e-07
2.73841e-06
1.17374e-06
2.67262e-06
1.88671e-06
2.52802e-06
2.64522e-06
2.30067e-06
3.4297e-06
1.98945e-06
4.21601e-06
1.59651e-06
4.97827e-06
1.12739e-06
5.69168e-06
5.90993e-07
6.33495e-06
6.89011e-06
-5.74731e-09
5.87955e-08
-1.98078e-08
1.57069e-07
-4.30872e-08
2.77939e-07
-7.58148e-08
4.15461e-07
-1.17775e-07
5.56868e-07
-1.69228e-07
6.83812e-07
-2.31432e-07
7.78792e-07
-3.06182e-07
8.30999e-07
-3.95021e-07
8.36673e-07
-4.98778e-07
7.96832e-07
-6.17471e-07
7.14626e-07
-7.5029e-07
5.93423e-07
-8.95451e-07
4.36108e-07
-1.04996e-06
2.45368e-07
-1.20941e-06
2.43621e-08
-1.36798e-06
-2.22732e-07
-1.51865e-06
-4.90471e-07
-1.65364e-06
-7.72239e-07
-1.76499e-06
-1.06057e-06
-1.84518e-06
-1.34763e-06
-1.88776e-06
-1.62572e-06
-1.88776e-06
-1.88776e-06
-1.84206e-06
-2.12763e-06
-1.74948e-06
-2.34042e-06
-1.61076e-06
-2.52246e-06
-1.42829e-06
-2.67124e-06
-1.20594e-06
-2.78515e-06
-9.48609e-07
-2.86323e-06
-6.61994e-07
-2.90478e-06
-3.52257e-07
-2.90901e-06
-2.58257e-08
-2.8747e-06
3.10751e-07
-2.79995e-06
6.50865e-07
-2.68192e-06
9.87835e-07
-2.51678e-06
1.31485e-06
-2.29967e-06
1.62483e-06
-2.02487e-06
1.91035e-06
-1.6861e-06
2.16348e-06
-1.27706e-06
2.37579e-06
-7.92226e-07
2.53833e-06
-2.27845e-07
2.64188e-06
4.16771e-07
2.67745e-06
1.13818e-06
2.63666e-06
1.92749e-06
2.51263e-06
2.76925e-06
2.30073e-06
3.6416e-06
1.99941e-06
4.51733e-06
1.61074e-06
5.36695e-06
1.14066e-06
6.16175e-06
5.99e-07
6.8766e-06
7.48911e-06
-5.51786e-09
6.43133e-08
-1.89799e-08
1.70531e-07
-4.12779e-08
3.00237e-07
-7.26549e-08
4.46838e-07
-1.12958e-07
5.97171e-07
-1.62549e-07
7.33404e-07
-2.22803e-07
8.39047e-07
-2.95671e-07
9.03867e-07
-3.8293e-07
9.23933e-07
-4.85724e-07
8.99625e-07
-6.04459e-07
8.33361e-07
-7.38834e-07
7.27798e-07
-8.87759e-07
5.85033e-07
-1.04913e-06
4.06742e-07
-1.21957e-06
1.94803e-07
-1.39425e-06
-4.80498e-08
-1.56693e-06
-3.17791e-07
-1.7302e-06
-6.08973e-07
-1.87591e-06
-9.14862e-07
-1.99577e-06
-1.22778e-06
-2.08193e-06
-1.53956e-06
-2.12763e-06
-1.84206e-06
-2.12763e-06
-2.12763e-06
-2.07857e-06
-2.38948e-06
-1.97912e-06
-2.62192e-06
-1.82994e-06
-2.82042e-06
-1.63354e-06
-2.98155e-06
-1.39399e-06
-3.10279e-06
-1.1166e-06
-3.18217e-06
-8.0762e-07
-3.21799e-06
-4.7393e-07
-3.20839e-06
-1.22818e-07
-3.15106e-06
2.38176e-07
-3.04291e-06
6.01329e-07
-2.87994e-06
9.58745e-07
-2.65709e-06
1.3023e-06
-2.36842e-06
1.62353e-06
-2.00733e-06
1.91358e-06
-1.56711e-06
2.16311e-06
-1.04175e-06
2.36231e-06
-4.27052e-07
2.50112e-06
2.77966e-07
2.56962e-06
1.06968e-06
2.5586e-06
1.93852e-06
2.46029e-06
2.86756e-06
2.26935e-06
3.83254e-06
1.98373e-06
4.80295e-06
1.60538e-06
5.7453e-06
1.14061e-06
6.62652e-06
6.00194e-07
7.41702e-06
8.08931e-06
-5.29418e-09
6.96075e-08
-1.81735e-08
1.8341e-07
-3.95093e-08
3.21573e-07
-6.95512e-08
4.7688e-07
-1.08196e-07
6.35815e-07
-1.55884e-07
7.81092e-07
-2.14069e-07
8.97233e-07
-2.84817e-07
9.74614e-07
-3.70095e-07
1.00921e-06
-4.71321e-07
1.00085e-06
-5.89234e-07
9.51274e-07
-7.23949e-07
8.62514e-07
-8.74946e-07
7.3603e-07
-1.0409e-06
5.72691e-07
-1.21938e-06
3.73289e-07
-1.40664e-06
1.39208e-07
-1.59742e-06
-1.27009e-07
-1.78506e-06
-4.21336e-07
-1.96172e-06
-7.38196e-07
-2.11888e-06
-1.07062e-06
-2.24785e-06
-1.41059e-06
-2.34042e-06
-1.74948e-06
-2.38948e-06
-2.07857e-06
-2.38948e-06
-2.38948e-06
-2.33682e-06
-2.67458e-06
-2.23e-06
-2.92724e-06
-2.06966e-06
-3.14189e-06
-1.85844e-06
-3.31401e-06
-1.60069e-06
-3.43991e-06
-1.30223e-06
-3.51645e-06
-9.69955e-07
-3.54067e-06
-6.1159e-07
-3.50942e-06
-2.35436e-07
-3.41907e-06
1.49807e-07
-3.26518e-06
5.35122e-07
-3.0424e-06
9.11202e-07
-2.7445e-06
1.26842e-06
-2.36455e-06
1.59679e-06
-1.89547e-06
1.88587e-06
-1.33084e-06
2.12488e-06