/*--------------------------------*- C++ -*----------------------------------*\
| =========                 |                                                 |
| \\      /  F ield         | OpenFOAM: The Open Source CFD Toolbox           |
|  \\    /   O peration     | Version:  v1912                                 |
|   \\  /    A nd           | Website:  www.openfoam.com                      |
|    \\/     M anipulation  |                                                 |
\*---------------------------------------------------------------------------*/
FoamFile
{
    version     2.0;
    format      ascii;
    class       volScalarField;
    location    "10000";
    object      k;
}
// * * * * * * * * * * * * * * * * * * * * * * * * * * * * * * * * * * * * * //

dimensions      [0 2 -2 0 0 0 0];


internalField   nonuniform List<scalar> 
71770
(
0.000989698
0.00105215
0.00116847
0.00140928
0.00158461
0.00160355
0.00163385
0.00165854
0.00162246
0.00157475
0.00197641
0.0028985
0.000961982
0.000988092
0.000962441
6.81025
5.70304
0.000613857
0.00293801
0.0317212
0.0106259
0.000192209
0.000189601
0.0844346
1.77107
0.936825
2.97252
0.452145
0.202717
4.36895
0.000620227
0.00297403
0.0107576
0.0321149
9.95857
8.8137
8.38038
8.57278
9.03193
9.34796
9.55909
9.13806
9.46199
9.68247
9.73812
8.67637
9.70015
9.82976
9.90045
6.89854
5.77309
7.75846
6.97531
7.84861
7.92765
8.48607
8.9333
9.23687
9.43979
7.052
8.03593
7.17094
9.5045
9.17483
8.71902
9.42684
0.949416
1.79419
3.00978
3.05508
1.82514
4.42208
4.47917
4.55487
9.9348
9.87235
9.83371
9.83522
5.83956
5.91696
6.0474
9.99707
9.44198
9.12195
9.68226
9.12054
9.39686
9.86189
9.7895
9.61372
9.59374
9.73859
9.63348
9.73063
9.77561
0.482041
3.2402
0.0109063
0.0873478
0.209664
0.216423
0.509511
1.0489
1.96058
0.0901961
4.68858
0.00301499
0.0006415
0.000195367
0.00307693
0.01113
0.0332258
0.000663524
0.00317819
0.0114951
0.0343139
8.11624
7.50452
7.33178
6.49128
6.73627
6.28691
9.21284
7.7429
8.23589
8.7513
8.44317
8.90685
2.07276
3.38307
4.83436
3.52442
4.97779
5.18443
3.70224
0.546976
1.11962
0.0955577
0.229133
0.102989
0.246664
2.18341
2.31064
5.41138
6.1711
3.88822
2.44079
0.000205724
0.000225059
0.00336893
0.0121827
0.0363629
0.000704972
0.000262355
0.0131385
0.000821735
0.0140668
0.00389258
0.000290868
0.0036349
0.000765178
0.0392082
0.110223
0.0419739
0.281472
0.263772
0.583666
1.18914
0.622266
1.26469
0.299473
0.661465
1.34144
0.00415412
0.0150152
0.11765
0.0448045
0.000298908
0.000874273
0.000928211
0.000308552
0.00442095
0.125214
0.131932
0.315462
0.0159822
0.0476896
0.0168409
0.0502519
0.00465787
0.000976034
9.36932
9.11066
9.57151
7.98442
8.22056
6.96841
8.67593
8.91907
9.34305
9.52493
9.6802
7.18329
5.80032
1.54645
1.7175
4.40475
2.79356
3.05805
4.05449
0.696282
1.40958
2.55643
5.61814
0.000316824
1.46319
2.65016
4.19456
0.723112
0.327638
0.765225
0.137017
0.0521861
0.0174883
0.000315857
0.00101028
0.00483584
0.145083
0.346877
0.16383
0.857939
0.390832
0.0185181
0.0552605
0.00511912
0.000315594
0.00106509
9.91966
9.71171
9.9801
9.98598
10.3765
10.032
8.56802
9.70767
9.28624
10.1562
9.58187
8.96792
8.88771
7.49726
10.3934
10.4335
4.74237
1.86477
4.92091
3.24938
6.06883
6.44159
6.5465
7.88348
7.88879
10.2915
10.4059
10.4203
10.7237
10.7476
10.5842
9.72976
10.277
10.3823
0.945558
4.0319
7.56723
5.88878
2.38458
1.23208
8.85244
0.0624561
0.0209366
0.000382625
0.00121069
0.00579018
0.00137546
0.00051841
0.434256
0.182694
0.0697455
0.241119
0.571014
0.0233937
0.00647754
0.092174
0.0309281
0.458318
0.967339
0.205505
0.467393
0.995812
1.87275
3.12086
0.0855998
0.0325587
8.69417
7.26218
8.09757
9.73284
9.95834
10.3181
0.00019041
0.000628349
0.00322133
9.05554
9.56499
8.34058
7.33638
0.120765
0.0406891
0.0113189
0.00251421
0.00137961
0.726597
0.313014
2.76109
1.51025
4.36263
5.9839
0.00866971
0.00855868
0.00179881
0.000604999
50.4006
40.7889
50.7865
38.978
38.3472
44.252
44.157
41.1117
38.7234
38.2719
37.5093
33.6238
53.6776
42.1778
40.6611
38.896
37.0333
37.6546
35.7627
28.4943
39.9646
85.9852
48.1184
42.5144
40.5045
36.3902
37.6547
35.0251
34.2247
27.019
46.0961
66.4923
44.6623
43.8599
44.0225
39.9814
42.518
36.2218
36.6185
38.688
35.3358
33.4815
32.5134
50.1819
63.737
47.8855
46.1615
43.8016
46.5578
41.4045
43.0206
36.1385
38.4489
35.1946
33.6912
31.8411
30.8589
27.1694
68.6196
46.222
46.1336
48.7972
46.2904
48.8766
41.1257
44.4928
36.3143
37.2312
39.7389
34.4923
33.0386
32.1582
30.4661
29.4587
25.6958
56.3223
50.9289
48.501
52.8521
47.8475
52.2499
42.3761
46.7098
44.0021
35.3443
36.7122
39.2381
34.5839
33.7153
31.2984
29.2928
28.1888
60.875
11.4023
91.6259
50.0557
52.2674
49.0929
56.4067
51.4017
55.8752
41.9604
47.6942
45.4893
35.4589
37.4748
40.4
34.0827
31.235
30.024
28.3059
26.8595
63.475
7.54911
63.8824
55.9306
52.4414
60.1783
53.2594
58.5337
43.1886
49.5053
45.2281
36.9798
39.7517
33.5522
32.0149
29.5156
27.7595
27.0357
26.2504
78.7626
30.3945
56.1997
60.156
54.812
62.6373
61.7053
51.7274
56.0463
58.0441
61.4078
42.8928
49.0183
46.8474
35.5182
38.3546
40.8879
34.1851
32.0488
29.9789
28.0479
26.3947
25.1675
73.3741
76.76
24.1323
53.3684
63.9151
61.8764
65.8507
65.9711
53.6158
56.2348
60.9328
63.1599
44.3491
50.8054
46.6335
35.4328
38.0728
39.7019
33.2443
31.1535
28.9323
27.3268
25.5406
24.6638
39.5685
76.9476
84.7856
58.9144
67.6411
66.0642
67.6635
67.6554
52.9811
58.2208
61.2877
66.3025
44.6795
50.2605
48.3868
33.8236
36.5882
39.9133
31.7179
29.272
28.3944
26.7454
25.0467
24.0565
21.0311
89.1759
65.2724
63.061
71.1011
71.3238
70.8304
71.4962
54.6856
57.3009
63.3784
67.9316
47.5426
43.4912
51.8238
33.1709
36.4638
38.0115
41.3632
31.3996
30.4008
29.2409
27.5335
26.472
24.6504
23.8213
44.9268
80.2082
64.4772
66.37
73.3333
73.1445
74.6669
73.3082
53.7636
58.9077
62.8464
65.9709
71.1996
48.8952
43.9816
51.3061
33.5419
35.0793
37.5612
41.705
32.6953
30.516
28.9567
27.5537
26.3704
24.3233
23.1737
38.9491
96.1232
62.1494
72.0807
75.7786
77.5527
78.2601
76.1175
73.7024
55.4271
57.5718
60.9729
65.603
67.8242
72.1751
48.1057
45.5074
53.4413
34.826
38.4837
35.8053
40.7738
33.1092
31.9587
29.887
29.0376
27.6701
26.1953
23.7261
22.7704
65.5046
13.6295
70.2352
63.0472
74.9609
79.0134
81.6741
77.8654
76.3957
59.31
61.3874
66.4893
70.1581
74.1028
50.9144
44.692
53.6496
37.8587
35.7295
41.7961
32.307
31.2827
29.8898
27.6225
29.5442
26.2123
25.0499
23.5526
22.6717
67.8922
9.07156
67.9461
69.2157
80.12
80.2281
82.0763
77.8112
79.5326
76.7026
59.2151
62.9333
64.9638
68.9112
71.1622
75.6077
73.0219
51.4581
45.8382
56.8852
38.7041
34.299
41.0465
32.2449
31.8591
29.407
30.8175
27.49
25.5924
24.9696
23.3265
22.2294
34.826
72.8207
2.48286
66.5909
72.4881
82.503
80.427
80.1546
78.0001
78.8079
78.07
61.8614
66.8371
70.4753
68.6502
76.3543
74.1445
54.8738
49.9176
47.6533
43.6137
56.7709
38.3343
34.2851
41.9691
33.0852
29.9172
30.7341
32.5612
29.0741
26.8264
26.1296
24.9558
22.1646
41.1864
66.717
0.0292659
70.3316
80.7998
82.1939
79.5389
76.6166
80.4584
77.4739
77.2705
77.1644
77.6255
77.1155
63.1447
66.3099
72.3957
70.5775
75.5493
55.1869
50.7783
48.1754
44.3854
59.6291
39.9644
35.9213
35.38
31.9876
32.0609
33.3891
29.9489
27.3754
26.1528
25.9173
23.2653
22.1458
29.9472
69.2678
6.93588
70.2962
81.1733
83.8927
84.3418
76.218
72.7622
76.2111
75.7825
75.2293
74.2166
75.9204
76.7063
62.2312
67.9714
72.6716
70.3395
76.1304
58.8173
53.0136
47.0472
43.4573
40.2906
36.6792
33.4048
35.0197
31.404
28.7734
28.0804
25.3918
27.8405
23.3546
22.7518
21.8452
37.7516
57.5033
64.7187
2.59274
80.5895
86.425
79.8626
73.2093
66.4842
71.3721
73.4585
73.8819
74.4614
75.7077
76.4599
64.9979
67.2663
74.3923
72.0924
76.5671
60.4499
53.1588
48.0574
44.5791
41.5946
38.5705
35.5633
33.1102
32.0919
29.4564
26.3425
29.0172
25.1628
24.3081
22.8545
22.1575
20.3008
65.7093
63.1167
3.59917
81.3178
84.7584
72.8117
79.1852
66.8913
60.0516
63.6898
61.9395
70.0079
69.9272
72.0893
74.2114
76.7547
64.8864
68.9268
74.4483
71.4799
75.697
59.6538
63.2161
50.7446
56.9488
46.2486
43.2409
41.7956
39.6958
37.2888
34.5087
31.0255
33.292
27.7774
30.6756
25.5739
24.5194
23.0942
22.1125
37.6298
63.7478
71.4813
0.974863
83.6143
79.1323
69.1991
72.667
62.979
54.7492
56.2612
55.1026
65.4677
67.8691
69.4507
71.8884
74.1885
75.6872
67.8945
75.3606
73.3403
75.8342
62.8444
50.9697
56.526
46.6379
44.2415
39.3007
37.7332
36.5061
32.3812
34.0511
28.7286
30.5657
32.2097
27.5672
26.0798
24.7684
23.188
22.3811
36.0889
67.9957
73.0592
1.73766
81.1181
80.2091
72.4597
60.0575
56.52
47.8709
53.1368
47.1015
59.8208
62.2999
65.5603
69.6167
72.8036
74.5572
69.0475
74.9193
74.5897
71.8584
76.1876
64.3877
53.9873
48.7269
59.1204
43.3452
40.9374
39.9261
37.2304
35.9475
32.1436
34.6235
28.0075
26.1782
25.5416
24.8819
23.7295
22.8768
16.4918
52.2646
66.9789
84.1934
66.1449
62.8048
50.2129
54.9178
43.8803
42.3655
45.6012
36.5978
58.8825
60.5385
65.9785
70.2339
72.9907
75.4104
67.9761
75.4434
74.6685
72.2498
63.9948
54.1524
49.1866
61.9098
57.2928
44.7168
41.0013
39.832
36.5967
34.4123
32.0822
30.0814
27.9929
27.3201
26.1896
26.0731
23.8628
22.7894
15.0629
53.7452
66.123
77.3905
70.0643
60.9376
57.0147
50.9942
37.0669
50.7238
35.5019
34.1838
41.5095
30.1029
51.7882
57.0424
63.0532
67.7575
72.336
73.6546
69.6815
75.5214
74.7141
73.5413
67.669
52.1157
47.1986
62.9663
58.1744
43.2664
41.3556
39.2446
36.3034
34.1218
29.9542
27.9894
27.5791
26.2143
24.0769
23.0739
6.13286
32.7385
59.2736
77.4964
64.9081
41.1181
44.2081
40.0808
28.9395
44.6573
31.0847
29.2263
32.2734
22.9625
48.5584
51.0104
58.3487
63.754
68.7501
74.1788
75.3322
75.6123
73.3703
68.1706
52.3501
47.3796
61.1778
65.6366
55.3238
44.5664
43.917
41.1456
39.8318
35.8291
38.652
34.7593
31.9608
29.6919
27.7866
29.4808
26.3566
24.0475
22.8633
4.34439
39.8696
57.425
63.1254
73.5957
44.9974
67.0952
36.5467
34.0629
30.1441
16.1117
38.8031
22.4719
21.3416
29.0127
17.9593
40.8432
46.9861
55.6349
59.5742
67.5153
73.5693
74.6813
75.0113
74.5638
72.4178
70.4609
49.2455
62.7604
65.7091
55.429
45.309
43.8959
43.0091
37.6712
39.466
34.0835
37.1001
31.5249
30.0525
30.9964
27.9102
26.1071
24.1427
23.2887
9.50744
29.8617
60.6575
76.2075
51.5224
19.6707
21.7266
20.8097
13.1337
13.0615
32.2108
18.5748
15.85
24.4324
10.3105
36.1603
39.7489
50.1098
57.2501
58.4032
63.0531
69.7172
71.6973
74.2887
74.8428
74.1833
72.9056
68.2508
48.3039
61.9046
52.656
58.6277
44.7254
43.9064
41.8929
36.2262
38.1469
33.8398
31.383
33.3327
27.7426
30.4047
26.1936
24.2676
23.1889
3.07568
32.1544
68.7555
44.345
61.6403
36.079
10.8617
17.2536
14.6877
5.77
5.39303
25.2755
11.215
10.2493
17.7527
5.66557
28.645
36.7309
48.1799
55.9267
59.075
62.0396
68.1235
69.9511
73.0548
74.2573
74.6558
72.634
68.9754
49.8403
63.862
53.6966
57.0109
47.8898
46.8357
42.8576
36.17
40.6808
34.0383
35.0097
29.9
31.6641
28.2124
26.7585
24.4806
23.3524
12.8856
61.0795
45.7248
38.2603
58.4961
3.85032
7.8281
5.58248
1.29487
2.37415
24.4276
8.04959
5.6634
12.4642
2.07269
24.0769
40.7011
30.0384
52.1777
44.7782
54.9203
65.2145
59.4168
70.6261
73.4209
74.0068
73.8064
71.2788
67.1094
62.3137
51.5372
58.7067
48.7196
48.1818
46.4096
39.1222
41.2985
35.9912
37.7176
30.2788
33.7815
28.6025
26.6827
24.5454
24.5388
23.7314
8.03709
62.6242
40.471
24.5657
64.1846
35.1439
1.88727
2.46319
5.56698
1.26934
0.283797
0.248153
17.5348
3.20473
3.48328
6.94376
0.81665
25.4259
17.4269
36.1332
29.611
49.938
45.5099
56.0528
51.3375
64.0959
60.3062
69.0189
72.5453
74.6144
72.7979
74.262
70.8578
68.0538
63.7614
51.5563
57.3435
47.3945
39.6458
44.8196
38.4015
35.7999
33.0607
34.6113
31.1395
28.0292
26.6496
26.6055
24.8005
23.6272
18.3804
1.91896
53.8419
47.1834
9.49633
59.6781
26.8207
0.348326
0.373893
1.66027
0.0656581
0.124066
0.108316
0.190397
1.89635
1.34204
5.28862
0.115198
18.8592
14.879
37.3549
24.6522
42.3366
53.1825
48.4584
66.0627
58.2066
70.3082
74.2829
72.2971
73.676
72.0081
66.5992
62.1678
53.7555
59.238
50.8431
43.0094
45.0072
40.913
37.9065
33.4118
37.3059
31.9809
30.3347
28.919
27.2238
25.1089
23.8706
14.8469
0.807908
56.2215
25.8817
3.66118
64.222
35.8348
9.19372
0.134809
1.20047
0.367246
0.104038
0.296165
0.306053
0.296694
0.363225
0.619514
1.94183
6.36099
0.275977
0.229353
18.0704
8.48562
33.2356
25.7683
43.5533
49.198
54.1108
63.7741
59.1325
68.6656
73.2786
74.2821
69.8118
73.955
71.2479
67.1093
63.7093
53.5887
56.5876
51.9596
43.2214
48.0014
40.5209
35.4915
39.3436
34.466
31.2018
29.1375
27.3219
25.092
24.9154
24.0794
12.4027
4.26416
46.9378
29.2047
53.178
34.2125
2.33407
0.328059
0.349811
0.0626559
0.175693
0.370265
0.284991
0.369927
0.153349
0.22095
1.33887
2.48564
0.45534
0.405297
11.4842
7.06278
34.6274
20.827
40.4738
43.3131
52.0027
65.0465
55.5641
72.9115
73.9501
68.7382
72.4216
68.9255
62.7016
56.3683
50.853
46.8091
41.9473
38.0356
39.6185
36.2654
33.7303
32.1847
29.1517
27.0788
26.9292
25.3212
24.0673
0.00126038
5.28717
48.5432
19.0637
53.2052
13.9873
0.548275
0.218764
0.0436427
0.200566
0.0718297
0.226005
0.236551
0.208948
0.378362
0.226273
0.224678
0.426775
1.65814
0.393399
0.412727
0.38562
10.6693
3.04041
31.3139
14.5721
24.387
40.6335
48.236
63.5212
56.2283
74.1663
70.5831
73.0616
74.2921
65.801
72.0347
68.4288
65.2598
58.7362
0.00126518
53.8513
48.1051
44.0648
38.8097
43.3139
36.0977
34.3612
31.87
28.7848
28.753
27.5721
24.4595
0.00124315
2.91923
40.8737
5.72784
25.64
50.0548
11.0656
0.205868
0.132271
0.0481443
0.174269
0.171396
0.143538
0.192466
0.20237
0.150975
0.266799
0.34751
0.325006
0.538251
0.348582
0.391181
0.444744
5.625
2.84164
33.5551
12.1038
21.476
42.4811
47.8061
60.4862
52.2738
73.3637
70.0848
72.736
73.7625
65.1325
70.2625
64.6657
57.6798
52.2739
46.5818
44.7806
41.327
44.2304
38.5642
36.6007
33.8737
30.2953
29.1798
28.595
26.1543
25.0784
45.3847
3.06673
15.0999
27.123
56.0106
3.46534
0.039499
0.00681045
0.0913952
0.157154
0.129663
0.162561
0.0740118
0.117984
0.120078
0.0955911
0.203386
0.34224
0.230834
0.253679
0.355827
0.466632
5.11042
0.952801
28.0513
7.63411
16.3684
36.0388
44.2838
59.6634
52.7984
72.1097
73.462
67.9447
73.3291
71.8321
62.0427
70.0771
67.4081
60.7077
53.7263
47.6834
41.3532
46.644
38.2603
38.1966
36.4638
32.3524
31.6007
30.4022
26.6755
26.0019
24.758
37.6542
3.4416
20.1305
20.7522
38.0056
8.38028
0.546092
0.100857
0.105729
0.0754268
0.193796
0.0823772
0.0798949
0.062311
0.0915415
0.101346
0.128404
0.341854
0.298888
0.234039
0.367459
0.44202
2.08533
0.40801
29.1677
6.96982
15.2453
37.7826
45.2446
56.8936
48.8962
71.0894
73.2073
68.0784
72.5553
71.5601
61.5564
67.5421
60.0239
50.5132
57.2829
43.5544
47.2565
49.2451
40.0138
38.3369
37.4915
33.3447
32.2067
31.4745
29.8243
27.8051
26.0983
25.2809
38.0675
1.00396
15.3735
38.5244
4.27041
0.205839
0.101682
0.0741349
0.0895062
0.0543855
0.0636055
0.0447813
0.0563841
0.0758362
0.0874143
0.100506
0.44406
0.236371
0.185259
0.262162
0.335692
0.477012
1.58944
0.279539
24.1936
3.04428
10.1429
18.455
35.1882
42.4121
56.1347
49.4281
72.1449
73.2146
72.7435
66.4785
70.0561
58.5323
63.2746
66.1977
61.7463
51.1232
58.2595
42.2778
46.0878
50.0441
41.8097
40.5779
35.7278
34.5136
34.4649
30.1125
27.9076
26.7871
25.8302
39.7066
33.7044
0.717254
22.6361
6.25468
25.996
0.594262
7.45732
0.107775
0.0735931
0.0593098
0.0627111
0.042175
0.0420666
0.032956
0.055697
0.0409085
0.0681226
0.0909863
0.0712149
0.107801
0.391593
0.211837
0.126146
0.260118
0.302697
0.465677
0.452079
0.312978
26.8768
2.60538
9.57636
14.3992
32.6051
45.3041
52.4938
71.751
73.1864
71.9869
66.9145
69.5426
56.9185
61.6104
63.8063
67.4109
54.8777
57.6495
43.7568
48.1333
51.7188
42.706
41.0749
36.3374
35.545
36.1699
32.079
29.4242
29.0606
26.9066
25.6715
39.5682
36.0536
0.353196
14.8828
4.36086
28.7042
0.0529436
1.6424
0.105755
0.059795
0.0496239
0.0329686
0.0364242
0.030164
0.0279844
0.0255003
0.0363379
0.0545993
0.0844177
0.0608168
0.093397
0.481351
0.130265
0.154169
0.408427
0.19202
0.350263
0.327529
24.2985
3.98082
1.01508
6.30361
14.3935
34.9064
45.0922
52.3848
70.9156
72.6026
72.2623
70.5563
63.18
68.3863
58.812
62.516
66.1557
54.233
59.9904
46.4856
50.6525
52.1262
46.6719
38.667
43.7768
38.5131
39.0925
34.74
31.3915
30.9569
29.0838
26.9586
26.3349
35.2895
32.4666
0.210954
5.93319
20.0513
0.914869
13.6743
0.37202
0.107761
0.0727214
0.0330153
0.0345546
0.0237574
0.0245571
0.0210991
0.0196667
0.0198749
0.0305091
0.0444369
0.0657069
0.0873599
0.0479707
0.102227
0.457405
0.123684
0.148503
0.402751
0.178978
0.331043
0.484397
0.467192
17.8147
29.8581
1.77345
7.68371
41.3119
49.6113
71.3582
72.2391
71.2996
69.1773
61.6136
67.0059
58.5646
64.0021
67.229
56.335
59.3293
48.1383
52.5139
55.0594
48.0029
46.7235
43.2039
40.5036
40.9798
40.5894
35.36
33.3595
30.8955
33.1442
29.089
28.1861
26.3233
36.5391
34.6935
2.91295
15.154
0.185262
11.8692
0.254091
0.0883329
0.0640952
0.0226706
0.0277798
0.0172736
0.0189505
0.0155138
0.0144589
0.0154312
0.022791
0.0320461
0.0547538
0.0825848
0.0396827
0.099839
0.111874
0.395014
0.124902
0.204328
0.345425
0.316313
0.519493
16.2293
30.3992
1.68025
5.98186
43.5639
49.6864
70.4443
72.0121
71.7316
69.8413
63.295
68.5652
57.5615
61.6302
66.243
51.5059
56.04
51.6966
49.0137
45.1053
43.8092
40.4043
43.4526
37.846
33.4068
35.374
30.7659
30.6943
28.1564
26.2912
24.1852
32.5006
1.72813
21.2724
5.74871
0.0903275
4.95506
0.0262721
0.1024
0.0386584
0.0167825
0.020815
0.0141473
0.0150232
0.0129906
0.0108005
0.0109776
0.018074
0.0242126
0.0445674
0.0623738
0.0894093
0.0284897
0.108661
0.275248
0.479077
0.118013
0.142768
0.480159
0.567314
19.1582
12.6983
36.1127
24.1626
2.6229
7.96574
42.69
54.6098
70.5792
72.0698
71.4323
67.6756
62.7375
67.2584
59.0452
61.7645
64.0802
53.8772
58.6649
51.8146
47.8232
46.1231
43.12
37.4495
35.3415
33.0933
32.9591
31.2688
27.8632
26.6552
25.6469
31.0269
0.367524
18.7195
1.8915
2.46864
0.0754502
0.0569322
0.0265718
0.0129235
0.0181403
0.00995036
0.0135529
0.0111716
0.00832815
0.00887801
0.0146757
0.0205785
0.0389928
0.0549257
0.0828576
0.0233224
0.0919098
0.291268
0.431865
0.103691
0.149429
0.483912
0.330158
14.2652
34.8423
24.7536
2.17683
4.24675
47.2324
52.1608
68.7738
71.2348
72.1452
70.5931
67.2865
61.2335
65.5658
58.7407
62.7633
57.1538
59.2246
54.2398
49.8292
45.4677
48.4531
42.2063
39.545
38.1003
34.8206
33.2814
31.8258
30.4165
27.8343
26.4614
12.3336
29.0226
0.0956866
7.45715
21.2418
0.233536
0.403975
0.023878
0.0584138
0.0165245
0.00856015
0.0157889
0.00796684
0.0109344
0.00868598
0.00639892
0.00646824
0.0129112
0.0183678
0.0449899
0.0275107
0.0618132
0.0194638
0.0887457
0.205737
0.452975
0.103742
0.115019
0.471084
0.272261
0.585114
13.7683
28.7088
39.613
18.7114
1.32224
4.73522
44.9612
54.7704
68.2187
71.3014
71.2634
70.298
68.6396
64.3068
62.2383
64.8662
57.93
60.6808
59.0967
53.1433
57.8645
47.8512
50.189
44.3497
39.1291
37.3234
35.7804
34.5211
32.2619
30.0625
28.0721
27.0234
10.877
29.0172
5.10225
22.4934
0.0308283
0.647508
0.0279585
0.0442753
0.0133556
0.00685453
0.0136084
0.0156376
0.00590281
0.00972132
0.00629593
0.00572695
0.00488123
0.00565536
0.0105273
0.0404247
0.0242344
0.0499654
0.0180493
0.0761057
0.244433
0.410181
0.0958965
0.118356
0.609507
0.325694
0.254213
6.88486
27.4671
38.4356
19.2779
2.12095
48.8616
52.8075
65.8445
69.3479
70.7839
71.872
71.614
69.1053
66.7442
63.0047
59.2729
61.5723
55.1804
60.5049
47.7771
53.2862
42.3988
38.0223
35.0917
32.2454
30.6298
28.5384
27.1352
2.70109
9.82529
19.6769
14.1428
1.46376
0.0440665
0.00561337
0.0471714
0.0160243
0.00791729
0.00458753
0.00607256
0.0117288
0.0135078
0.00457655
0.00724772
0.00535169
0.00426274
0.00486023
0.00399902
0.0040956
0.0090734
0.0290401
0.0203147
0.0485106
0.0151002
0.0794606
0.0571333
0.180923
0.469029
0.0997404
0.133904
0.547925
0.337548
5.60151
32.7204
42.242
18.1679
2.13096
48.4111
54.7885
64.3972
68.3983
70.4644
70.9715
71.0452
67.3981
68.8155
64.6588
59.7849
58.8305
63.4338
49.821
54.8759
43.381
40.4379
37.329
34.8222
32.5881
31.3737
28.2866
26.9559
4.00455
18.9833
10.4771
2.15833
0.00345217
0.0366117
0.00914752
0.00765493
0.00345296
0.00411715
0.0101323
0.0132602
0.00358643
0.00613111
0.00476949
0.00357613
0.00387685
0.00354985
0.0068899
0.0266807
0.0187314
0.031809
0.0148942
0.0614229
0.0475681
0.2443
0.402953
0.0975093
0.133201
0.537234
0.302487
6.60781
32.8462
46.9614
39.5971
11.5029
24.588
0.654088
52.9599
57.5856
65.5636
69.4712
70.1461
70.9979
71.1479
69.6439
65.0753
66.7815
62.606
60.7848
49.4828
53.3581
58.4618
46.2633
40.8684
39.4884
37.0368
34.5624
32.8563
32.5809
31.0241
28.4763
27.2733
1.86463
8.7135
17.2317
11.8106
0.805867
0.0415451
0.0446641
0.0103089
0.00615775
0.0027004
0.00330747
0.00932196
0.0108795
0.00286206
0.00509063
0.00395981
0.00285067
0.00361856
0.00296866
0.00608096
0.020605
0.0293744
0.0123853
0.0578554
0.0362871
0.183717
0.467416
0.0894447
0.108465
0.545134
0.313072
3.3256
31.0677
49.5768
41.69
12.0111
23.5131
1.32315
54.8124
58.4796
64.9929
68.8178
70.0783
70.3764
69.43
68.7166
65.0115
64.4844
62.5309
63.391
51.8386
55.352
58.8956
46.0575
43.2058
41.5722
39.0623
37.4549
35.7085
35.2781
31.2869
28.4771
27.0535
0.264627
6.43028
17.7647
9.63967
0.16297
0.0295405
0.000592244
0.00591199
0.00376165
0.00642738
0.00251259
0.00224344
0.00235534
0.00705051
0.0102878
0.00240509
0.0046047
0.00338698
0.00250156
0.00266618
0.00293327
0.00264429
0.00518517
0.0190987
0.0227775
0.0124548
0.0376311
0.0638983
0.233981
0.409307
0.09177
0.112419
0.520094
0.31471
4.20152
36.1588
46.3507
53.1836
7.2025
17.7543
29.474
0.489084
56.944
60.7088
67.225
69.3116
70.0521
69.2156
66.7129
64.6816
65.299
54.1757
52.3741
60.7881
48.4352
41.745
39.4056
37.8958
37.3145
33.1864
30.9521
28.6254
27.6158
0.0790781
7.65013
1.0326
15.7888
13.4453
11.5591
3.17154
0.028901
0.0377517
0.00641162
0.0231796
0.00287922
0.00572119
0.00193104
0.00174247
0.00188753
0.00637506
0.0072228
0.0019136
0.00383298
0.00278243
0.00339402
0.00195185
0.0021078
0.00207906
0.00509686
0.0159271
0.0216025
0.00961153
0.0311531
0.0476841
0.191987
0.484873
0.0728992
0.110911
0.120194
0.556481
0.336539
1.59577
35.287
47.5157
54.8842
8.03956
18.5041
29.3835
57.5673
61.3043
67.0498
69.4654
70.0596
67.9539
64.5724
63.3069
65.0458
55.2382
51.5429
59.6417
48.3457
43.557
42.2299
40.8498
40.3845
36.1352
32.9299
31.1263
28.9921
27.5818
5.36374
0.413704
15.2893
12.9687
7.4312
2.96837
0.0284687
0.0137397
0.000365441
0.00464552
0.00208211
0.00347542
0.00618284
0.00178399
0.00170757
0.00146123
0.00175958
0.00141841
0.00628721
0.0016944
0.00361253
0.0024451
0.00267842
0.00186437
0.00190382
0.00444599
0.0154545
0.0178335
0.0242844
0.00748666
0.0106579
0.0365522
0.0538804
0.285468
0.440906
0.076948
0.110442
0.126947
0.532477
0.352262
1.99616
39.5616
44.5475
51.9405
54.9271
4.41252
13.6317
25.2794
36.1483
59.7415
63.2751
68.4031
69.2324
70.0428
70.2274
67.8614
65.9374
64.4698
66.6173
56.9535
53.5633
61.6248
46.2638
51.761
44.0851
43.7468
41.547
42.9429
37.6966
35.5117
33.5096
31.7436
29.2674
28.134
8.7782
1.49192
9.99839
14.3363
1.10223
0.00975075
0.00281776
0.00183667
0.00278024
0.00494409
0.00138302
0.00138225
0.00123071
0.00135121
0.00116995
0.00470113
0.00650404
0.00142831
0.00297919
0.00210323
0.00257991
0.00149662
0.00160587
0.0130097
0.0164332
0.0234861
0.00641808
0.0088546
0.0298876
0.0399712
0.260423
0.52373
0.102199
0.0580488
0.117535
0.150352
0.557102
0.8571
0.272301
47.5004
52.145
57.8337
6.13474
15.2956
26.6418
38.1584
60.3162
62.7864
68.0182
69.1339
69.4482
69.6768
69.0685
65.803
63.5655
66.5352
56.4356
61.254
47.2269
52.4312
46.569
45.1241
46.0667
42.6663
40.2295
35.9454
33.977
32.1069
29.4662
27.881
4.73981
0.363559
6.7857
13.9695
1.46057
0.0106358
0.00533554
0.000449715
0.0021626
0.00137816
0.00124764
0.00102729
0.00111643
0.001196
0.000973183
0.00393957
0.00475269
0.00132476
0.00285653
0.00186781
0.00221151
0.00138598
0.00148402
0.00157568
0.0128607
0.0175686
0.0141999
0.0202119
0.0047651
0.00703015
0.0101583
0.0323418
0.0442241
0.362378
0.483205
0.106181
0.065643
0.118187
0.158447
0.507612
1.21877
0.380872
45.614
55.5576
57.7776
59.8573
11.832
4.20014
21.9056
34.0093
63.7219
68.9237
69.1599
69.5898
66.8556
65.3768
63.8679
65.4128
67.9286
58.4729
49.9571
55.3537
49.9234
48.7603
45.1301
41.0629
39.2014
36.9306
34.8368
32.1599
29.6272
28.5468
6.32117
0.0712028
7.48567
12.4558
11.0028
0.330996
0.00847008
0.00322909
1.38006e-05
0.00183878
0.00123597
0.00104084
0.000904977
0.000920665
0.000950859
0.000852261
0.00313722
0.00110373
0.0022826
0.00195232
0.00119739
0.00122485
0.00144895
0.0154849
0.0132563
0.0220418
0.00366513
0.00645864
0.00950675
0.0279985
0.0330268
0.342661
0.544024
0.129318
0.0923213
0.0576349
0.105799
0.235039
0.540327
2.12701
0.493723
47.6075
56.0065
59.6465
61.5683
14.8617
6.55435
24.3267
35.7011
68.4087
69.1722
68.4828
67.0538
62.9383
60.9788
65.8
68.1761
58.3247
51.1452
55.0858
52.5225
47.9736
51.7243
44.3484
39.714
37.5702
34.9345
32.3408
29.9928
28.4561
3.54195
0.020759
4.16641
11.4174
10.1561
0.560334
0.00372079
0.0102327
2.20687e-06
0.00142109
0.000961635
0.00100581
0.000914809
0.000825046
0.000815973
0.000865325
0.000782318
0.00280994
0.00102642
0.00206436
0.00168254
0.00105541
0.0011664
0.00150575
0.00123216
0.0158188
0.0107451
0.019206
0.00380681
0.00300505
0.00511724
0.00840213
0.0333288
0.48953
0.125653
0.10493
0.0687741
0.0435346
0.118847
0.250489
0.4984
2.10113
0.877854
0.362751
42.7031
52.1081
58.366
55.0028
61.5638
59.2892
11.8436
21.2794
4.3663
30.7362
69.0526
67.4202
64.2444
62.2411
60.8454
67.5994
64.3298
68.048
69.1427
57.1207
56.4364
49.6044
54.9095
46.6118
42.1174
40.714
37.5839
34.7769
33.1542
30.2111
29.047
0.111388
3.3438
6.26649
11.5303
0.00557894
0.00154797
0.00595982
0.00822116
0.00129514
0.000830891
0.000862082
0.000899325
0.000780481
0.000707953
0.000706394
0.000717618
0.000702722
0.00220399
0.000896719
0.00171697
0.000946916
0.00101244
0.0013117
0.00114871
0.0139137
0.0100132
0.0207482
0.00300913
0.00426528
0.00260206
0.00599559
0.00815438
0.0252425
0.496051
0.123506
0.0921953
0.0544753
0.0420168
0.136397
0.37624
0.520297
1.14139
0.509527
43.709
51.5484
58.7029
57.0148
62.6759
61.1626
15.8018
25.2158
5.03786
32.6561
69.1752
65.8708
68.2367
64.0191
58.9975
67.2059
64.6468
68.1934
68.9357
51.9272
58.4322
54.3366
46.8686
45.0715
42.7917
37.0645
40.4195
35.3247
33.4458
30.4948
28.8537
0.226938
7.22651
1.21926
3.93524
8.82685
0.066108
0.0014331
0.00620772
0.0452654
0.000983741
0.000714912
0.000724147
0.000789863
0.000694721
0.00068135
0.000682454
0.000650449
0.000668014
0.00196663
0.000804925
0.0015082
0.000834317
0.000914998
0.00131292
0.00101724
0.0105422
0.0150037
0.0182795
0.00299175
0.00369173
0.00221609
0.0054145
0.0304068
0.578866
0.124703
0.102773
0.0566537
0.14721
0.401906
0.667705
0.317932
2.1624
0.634381
48.524
38.4258
54.1188
59.6593
56.3211
62.0178
23.7567
14.2124
8.58305
64.39
67.2372
61.1952
66.4227
67.842
64.0332
67.9569
68.6973
67.8187
52.6786
55.9289
51.0739
46.3193
42.7153
39.4804
41.4167
38.8391
35.7804
33.2735
30.6504
29.4443
6.94106
1.09855
4.51186
8.77137
0.0237931
0.000835527
0.00323011
0.0100824
0.000932364
0.000675824
0.000652929
0.000693396
0.000624386
0.000613133
0.000604799
0.00061579
0.000615379
0.00166694
0.000718478
0.00152235
0.000784091
0.000816978
0.00093745
0.00117799
0.0010215
0.0089694
0.0133849
0.0192983
0.0024413
0.00388355
0.00199116
0.00571716
0.0285799
0.532269
0.126735
0.109765
0.094055
0.0696916
0.0445645
0.214701
0.369761
0.606766
0.411624
2.76406
1.38226
48.7749
39.7043
52.9952
61.1907
59.3277
57.8857
63.2445
28.6503
20.2835
9.44052
65.2504
61.2532
66.1849
67.2143
65.3949
68.0594
67.4786
66.9644
58.3511
52.1924
49.2483
46.0318
44.817
40.6
35.5838
39.2407
33.5299
30.9727
29.2506
3.87783
7.90439
0.262667
2.50606
7.73381
0.0666157
0.000893217
0.00258714
0.00419966
0.00976555
0.000716097
0.000601497
0.000592465
0.000635473
0.000571307
0.000565479
0.000566031
0.000576068
0.000578095
0.00163027
0.000658512
0.00124578
0.000689346
0.000754628
0.000804043
0.000898339
0.00694742
0.0105434
0.0157172
0.0220399
0.00260512
0.00206913
0.00335772
0.00427716
0.0337934
0.593627
0.130915
0.135832
0.108068
0.0684466
0.0523659
0.211702
0.494032
0.625577
0.37337
5.84322
1.9934
46.5478
36.3041
54.6601
62.012
60.4144
57.9609
63.7948
26.4509
19.9161
15.9007
64.4861
66.8221
67.1875
65.3418
67.4199
66.3233
65.8053
58.7438
55.4741
49.5009
46.5286
44.431
38.8987
41.3245
36.2716
34.2327
30.378
28.9056
4.38806
6.6953
0.429653
1.80996
3.49894
8.01925
0.0493443
0.000744328
0.00125201
0.00293769
0.00234628
0.000670455
0.000540415
0.00059497
0.000523973
0.000527285
0.000521867
0.000528264
0.000518947
0.00142177
0.000619482
0.00117576
0.000663874
0.000778957
0.000907075
0.00667132
0.00933258
0.0155181
0.0220897
0.00208917
0.00307761
0.00185057
0.00371409
0.00458671
0.0275067
0.570861
0.125987
0.128623
0.0907976
0.0549675
0.298808
0.476758
0.592278
0.37186
0.752506
7.91346
4.70896
48.7104
40.6864
57.2238
53.2633
61.7091
63.2597
59.4765
61.2154
64.8565
32.4826
24.4192
18.1216
62.1834
66.2859
67.0668
66.4751
66.4955
65.3879
55.7738
52.306
50.0512
46.4815
39.2535
44.9149
36.848
34.9043
32.6421
30.4714
29.3475
2.73634
7.14587
0.0704902
0.253337
2.01098
7.27103
0.000684369
0.00145035
0.00317704
0.001214
0.000572518
0.000521015
0.00048864
0.000543656
0.000527359
0.000495784
0.000494474
0.000503619
0.000501094
0.000492152
0.00150861
0.00125651
0.000586623
0.00102597
0.000612977
0.000681482
0.000807672
0.00578809
0.0102767
0.0192885
0.0127414
0.00208091
0.00318794
0.00382455
0.0318812
0.629538
0.127325
0.147443
0.0966397
0.0762741
0.0439542
0.347662
0.630857
0.37931
1.66423
13.1706
5.13319
46.9445
38.6223
58.2356
55.5553
62.8862
63.786
60.0515
61.5104
65.2515
30.977
23.0741
17.5438
61.3926
66.4604
66.9382
64.4018
65.4924
63.3556
58.5067
52.3828
51.2351
49.8723
42.6591
46.8157
40.8085
37.1169
32.7767
30.7426
29.3545
3.49491
5.90276
0.246673
0.00128366
0.343411
3.44539
7.40187
0.000657666
0.000939018
0.00198421
0.00047273
0.000542288
0.000475332
0.000463464
0.000522162
0.000497594
0.000480559
0.000468607
0.000469346
0.000474431
0.000457745
0.00130981
0.00111111
0.000532855
0.000989055
0.000611222
0.000676455
0.000888024
0.000738793
0.00647223
0.0086358
0.0195334
0.0132626
0.00258883
0.00169893
0.0031854
0.00400202
0.029329
0.610474
0.127176
0.118804
0.251186
0.0853715
0.0511097
0.576158
0.614255
0.684776
0.370452
16.2952
6.13644
50.2783
43.5739
57.7636
59.6325
54.1534
63.2627
64.705
61.0453
62.4418
66.3344
35.6451
26.4802