/*--------------------------------*- C++ -*----------------------------------*\
| =========                 |                                                 |
| \\      /  F ield         | OpenFOAM: The Open Source CFD Toolbox           |
|  \\    /   O peration     | Version:  v1912                                 |
|   \\  /    A nd           | Website:  www.openfoam.com                      |
|    \\/     M anipulation  |                                                 |
\*---------------------------------------------------------------------------*/
FoamFile
{
    version     2.0;
    format      ascii;
    class       volScalarField;
    location    "10000";
    object      nut;
}
// * * * * * * * * * * * * * * * * * * * * * * * * * * * * * * * * * * * * * //

dimensions      [0 2 -1 0 0 0 0];


internalField   nonuniform List<scalar> 
71770
(
6.67613e-13
7.09733e-13
7.88184e-13
9.50648e-13
1.06895e-12
1.08173e-12
1.10217e-12
1.11882e-12
1.09447e-12
1.06218e-12
1.33306e-12
1.95519e-12
6.48926e-13
6.66548e-13
6.49241e-13
3.38211e-05
2.15796e-05
9.18351e-12
1.12375e-10
5.00064e-09
8.71806e-10
8.25815e-13
8.14608e-13
2.37019e-08
2.81044e-06
1.04838e-06
6.41482e-06
3.37655e-07
9.54231e-08
1.25405e-05
9.27876e-12
1.13753e-10
8.82628e-10
5.06312e-09
0.000290798
9.56557e-05
7.04643e-05
7.28036e-05
9.8592e-05
0.000130408
0.000169682
0.000101124
0.000133735
0.000173811
0.000178987
7.46287e-05
0.000218327
0.000223178
0.000229817
3.4319e-05
2.19186e-05
5.03069e-05
3.48816e-05
5.11262e-05
5.20065e-05
7.15395e-05
9.69088e-05
0.00012835
0.000167382
3.54597e-05
5.3266e-05
3.63055e-05
0.000137538
0.000103739
7.63147e-05
0.000136166
1.06355e-06
2.85248e-06
6.51416e-06
6.62044e-06
2.90174e-06
1.27391e-05
1.29418e-05
1.31671e-05
0.000300427
0.000300066
0.000297912
0.000293692
2.22709e-05
2.26364e-05
2.31986e-05
0.00029815
0.000138891
0.000104179
0.000181616
0.000102987
0.000137891
0.000233979
0.000234796
0.000181295
0.000179499
0.00023346
0.000177241
0.000230972
0.000227224
3.5942e-07
6.97947e-06
8.94823e-10
2.45183e-08
9.86869e-08
1.01783e-07
3.78731e-07
1.16602e-06
3.09159e-06
2.53086e-08
1.35357e-05
1.15318e-10
9.59678e-12
8.39359e-13
1.17686e-10
9.13157e-10
5.23808e-09
9.92608e-12
1.21556e-10
9.4306e-10
5.40884e-09
5.40567e-05
3.65602e-05
3.6755e-05
2.36786e-05
2.40935e-05
2.35813e-05
0.000101723
3.68253e-05
5.34538e-05
7.52412e-05
5.33569e-05
7.45924e-05
3.22635e-06
7.19815e-06
1.38399e-05
7.33433e-06
1.39298e-05
1.41576e-05
7.55574e-06
4.03856e-07
1.23161e-06
2.67949e-08
1.07589e-07
2.88352e-08
1.15418e-07
3.33573e-06
3.48141e-06
1.45574e-05
2.36184e-05
7.84909e-06
3.64982e-06
8.83843e-13
9.66898e-13
1.28848e-10
9.994e-10
5.73044e-09
1.0546e-11
1.12716e-12
1.07765e-09
1.22933e-11
1.15362e-09
1.48872e-10
1.2497e-12
1.39018e-10
1.14469e-11
6.17551e-09
3.08116e-08
6.60747e-09
1.30953e-07
1.22953e-07
4.27615e-07
1.29091e-06
4.53887e-07
1.36124e-06
1.39174e-07
4.81285e-07
1.43708e-06
1.58872e-10
1.23132e-09
3.28644e-08
7.05146e-09
1.28424e-12
1.30792e-11
1.38861e-11
1.32568e-12
1.69076e-10
3.49628e-08
3.68246e-08
1.46465e-07
1.31058e-09
7.50453e-09
1.38094e-09
7.9067e-09
1.78135e-10
1.46015e-11
0.000100878
7.44247e-05
0.000100114
3.73057e-05
3.77781e-05
2.45907e-05
5.36352e-05
5.39613e-05
7.43578e-05
0.000134544
0.000132806
2.50488e-05
1.53242e-05
1.65135e-06
1.82499e-06
8.80965e-06
4.15335e-06
4.5429e-06
8.12405e-06
5.05579e-07
1.50457e-06
3.80181e-06
1.49639e-05
1.36122e-12
1.55912e-06
3.92847e-06
8.36028e-06
5.24686e-07
1.52084e-07
5.56004e-07
3.8242e-08
8.21094e-09
1.43401e-09
1.35705e-12
1.51137e-11
1.84939e-10
4.05071e-08
1.61138e-07
4.56714e-08
6.20308e-07
1.80986e-07
1.5184e-09
8.69541e-09
1.95755e-10
1.35578e-12
1.59319e-11
0.000101283
7.5912e-05
0.000173702
0.000133197
0.000107868
8.35227e-05
3.91837e-05
5.97638e-05
5.55583e-05
8.13506e-05
6.08039e-05
4.22183e-05
4.25655e-05
2.61421e-05
0.000181898
0.000140714
9.55627e-06
1.92806e-06
9.66959e-06
4.68432e-06
1.60768e-05
1.736e-05
1.74016e-05
2.81845e-05
2.82444e-05
0.000111534
0.000146094
0.0001891
0.000120318
0.000156741
9.05296e-05
4.6885e-05
6.63121e-05
0.000243188
6.70483e-07
5.71413e-06
1.99172e-05
1.14011e-05
2.42837e-06
8.64874e-07
3.16025e-05
9.82184e-09
1.71638e-09
1.64369e-12
1.81092e-11
2.21403e-10
2.05755e-11
2.22722e-12
1.98883e-07
5.06702e-08
1.09471e-08
6.67503e-08
2.60211e-07
1.91678e-09
2.47673e-10
1.44603e-08
2.53394e-09
3.42428e-07
1.08313e-06
9.67546e-08
3.49056e-07
1.11232e-06
2.9696e-06
6.75198e-06
2.40307e-08
5.13317e-09
7.62396e-05
3.69413e-05
5.43015e-05
0.000174416
0.000225302
0.00023404
8.18074e-13
9.40017e-12
2.17294e-12
4.79062e-05
6.8523e-05
3.20726e-05
2.02064e-05
1.881e-08
3.32616e-09
4.3261e-10
3.76114e-11
5.92736e-12
3.20981e-07
8.51937e-08
2.69564e-06
1.01545e-06
6.044e-06
1.17027e-05
5.84813e-12
3.27249e-10
2.69085e-11
2.59921e-12
0.0114029
0.0161847
0.00411267
0.0171743
0.0196972
0.00240081
0.00573667
0.0120344
0.0232954
0.020201
0.0230159
0.00208449
0.00494014
0.0164688
0.0236481
0.0265402
0.0225972
0.0255169
0.0233355
0.00191621
0.00257252
0.00875874
0.0158048
0.0286223
0.0303358
0.023873
0.0280951
0.0243947
0.0238766
0.0019875
0.00355561
0.0113792
0.0211556
0.0275669
0.0323347
0.0315913
0.0330503
0.0255464
0.0273475
0.0305663
0.0256691
0.024611
0.0235948
0.00372703
0.0136057
0.0195158
0.0319459
0.0336672
0.0355856
0.0335675
0.0345742
0.0281696
0.0316279
0.0268377
0.0258923
0.0240331
0.0229693
0.00333751
0.00720382
0.0215899
0.0294513
0.0364547
0.0360629
0.0373406
0.034085
0.0359573
0.0293321
0.0307868
0.0331859
0.0269025
0.0264185
0.0254872
0.0235669
0.0225678
0.00311111
0.00805173
0.0158549
0.0327211
0.0394236
0.0376948
0.0398465
0.0351307
0.03732
0.0360201
0.0289793
0.0310607
0.033274
0.0279517
0.0276411
0.0251712
0.0231156
0.0219447
0.00687189
0.00261643
0.0121899
0.0218548
0.0383171
0.0298054
0.0415222
0.0395363
0.0412987
0.0351242
0.0378766
0.0368924
0.0298066
0.0320731
0.0342384
0.028776
0.0259195
0.0246176
0.0228138
0.0211016
0.00691396
0.00186804
0.0167606
0.0404778
0.0366511
0.0428133
0.040089
0.0418366
0.0357861
0.0385871
0.0367695
0.0320173
0.0339131
0.0287379
0.0272015
0.0245524
0.0224192
0.0219436
0.0211197
0.0103203
0.00471568
0.0218031
0.0428898
0.0381569
0.0429925
0.0434502
0.0393898
0.0407606
0.0413603
0.042385
0.0355432
0.0381931
0.0373672
0.0309858
0.0330595
0.034527
0.0297211
0.0277792
0.0256294
0.0232694
0.0216424
0.0200293
0.00919519
0.0209421
0.00410423
0.0330445
0.0443005
0.0434107
0.0433786
0.0443183
0.0396295
0.0403396
0.0415075
0.0421366
0.0360982
0.038514
0.0370916
0.0310876
0.0329199
0.0338362
0.0290885
0.0270893
0.0246236
0.0230569
0.0208468
0.0197539
0.00563221
0.0125105
0.0276647
0.0359419
0.0450838
0.0449896
0.0440456
0.0429218
0.0391417
0.040361
0.0409812
0.0422125
0.0360383
0.0380613
0.0374842
0.0298068
0.0319778
0.0338291
0.0278938
0.0253346
0.0244082
0.0224858
0.0204239
0.0191232
0.00386074
0.0138782
0.0304781
0.0419436
0.04545
0.0466007
0.0440155
0.0433477
0.0392188
0.0397385
0.0407772
0.0416784
0.0369765
0.035391
0.0381928
0.0293196
0.0318681
0.0327445
0.0344395
0.0277075
0.0266996
0.0255323
0.0235632
0.0223129
0.0200133
0.0189813
0.00749435
0.0173568
0.0285816
0.0433536
0.0447557
0.0463211
0.0474378
0.0425571
0.0386603
0.0396255
0.0400232
0.0409598
0.041466
0.0370826
0.0353489
0.0377363
0.0296739
0.0308892
0.0323237
0.0344127
0.0289636
0.0268764
0.0252346
0.0236178
0.0221385
0.0196142
0.0181668
0.00656866
0.0222446
0.0363583
0.0468012
0.0442398
0.0463691
0.0472849
0.043062
0.0417563
0.0386754
0.0390181
0.0396692
0.0399772
0.0405885
0.0408967
0.0365231
0.0356592
0.0379676
0.0306485
0.0327269
0.0312353
0.0338474
0.0293271
0.0282888
0.0261652
0.0252287
0.023554
0.0217776
0.018839
0.0176683
0.011655
0.0049555
0.0292488
0.0387486
0.0478106
0.0453028
0.0470238
0.0421417
0.0410069
0.0389001
0.0392071
0.0396184
0.0406164
0.0405426
0.0369352
0.0350619
0.0377074
0.0322057
0.0310183
0.034036
0.0284986
0.0274943
0.0259839
0.023386
0.0254972
0.0217094
0.0203465
0.018567
0.0175263
0.0117801
0.00378708
0.0338145
0.0453991
0.047894
0.0440371
0.0449919
0.0409862
0.0422529
0.0402403
0.0384269
0.0390264
0.0391888
0.0395376
0.0401127
0.0402533
0.0400557
0.0367491
0.0351454
0.0379954
0.0324921
0.0299745
0.0335425
0.0282066
0.0277384
0.025001
0.0264885
0.0228921
0.0208788
0.0201174
0.0181832
0.0169332
0.00858218
0.017865
0.00183233
0.0425442
0.0473833
0.0482249
0.043519
0.0430351
0.0398173
0.0408328
0.0395638
0.0385091
0.0389428
0.0396644
0.0390496
0.0393897
0.039603
0.0372104
0.036187
0.0355824
0.0342023
0.0375963
0.0320511
0.0297971
0.0336437
0.0285134
0.025302
0.0262714
0.0279312
0.0244098
0.0221477
0.0212647
0.0198533
0.0167832
0.00986379
0.0159617
4.35223e-05
0.0459242
0.049168
0.0452143
0.0415595
0.0404087
0.0431724
0.0395403
0.0388249
0.0401133
0.038904
0.038942
0.0382947
0.0385242
0.0392754
0.0387409
0.039128
0.0369128
0.0361541
0.0354645
0.0342251
0.0376686
0.0326725
0.0306567
0.0300804
0.0269802
0.0272173
0.0282987
0.0249258
0.0225362
0.0211702
0.0207261
0.0179347
0.0166408
0.00845642
0.0188258
0.00523375
0.0450521
0.0491771
0.0489114
0.046392
0.0399354
0.0389034
0.0406675
0.0383476
0.0375702
0.0383777
0.037595
0.0378868
0.0379085
0.038332
0.0388587
0.0383661
0.0384868
0.037263
0.036398
0.0349628
0.0337057
0.0325057
0.03056
0.0278561
0.0293236
0.0260172
0.023777
0.0228593
0.0201184
0.0225042
0.0179594
0.0171936
0.0161973
0.00946383
0.0144456
0.0282105
0.00296149
0.0500678
0.0504036
0.0438888
0.0381737
0.0365498
0.039172
0.037651
0.0372791
0.0369302
0.037243
0.0375084
0.0378368
0.0380137
0.0384482
0.0380315
0.0378925
0.0372001
0.0360229
0.0349565
0.0338526
0.0329486
0.0315117
0.029363
0.02742
0.026329
0.0241298
0.0208869
0.0233077
0.0197007
0.018716
0.0171735
0.0164163
0.0069713
0.0164742
0.033352
0.00330778
0.0513246
0.0472445
0.0401255
0.0439444
0.0361086
0.0346469
0.0353615
0.0355976
0.0363015
0.035932
0.0358421
0.0361636
0.0370694
0.0375071
0.0378396
0.0379747
0.0377541
0.0371103
0.0368573
0.0373097
0.0354365
0.0363756
0.0342924
0.0332494
0.0327818
0.0317845
0.0301964
0.0281145
0.0253472
0.0271423
0.0221305
0.024582
0.0199792
0.0188028
0.0172569
0.0162186
0.0111648
0.0221085
0.0448419
0.00155505
0.0491264
0.0445489
0.0388631
0.0407333
0.0346153
0.0327491
0.0330096
0.0335296
0.0351326
0.0350585
0.0351871
0.0354577
0.0358518
0.036317
0.037482
0.0373811
0.0374055
0.0369832
0.0369467
0.0351348
0.0359935
0.034124
0.0332972
0.0313266
0.0300772
0.029258
0.0261783
0.0274146
0.0227936
0.0242537
0.0258172
0.0217238
0.0201857
0.0187918
0.0171704
0.0163257
0.0105499
0.0261884
0.0482444
0.00377738
0.0496603
0.0454478
0.0408972
0.0355548
0.0326607
0.0305205
0.0317963
0.0306617
0.0332937
0.0335588
0.033942
0.0345486
0.03516
0.0356499
0.0372984
0.0368511
0.036953
0.0372374
0.0364285
0.0367588
0.0355159
0.0345071
0.0360609
0.032736
0.031774
0.031053
0.0293248
0.0284774
0.0252649
0.0271992
0.0219205
0.0201513
0.0194041
0.018713
0.0174952
0.0166363
0.00883528
0.0162168
0.0379175
0.0506974
0.0397101
0.0375206
0.0324335
0.0319972
0.0293127
0.0283895
0.0293733
0.0268272
0.0328387
0.0328265
0.0337659
0.0344558
0.0350443
0.0358074
0.0370277
0.0363163
0.0362167
0.0368401
0.0364602
0.0352576
0.0342507
0.0361847
0.0356201
0.0329332
0.0312888
0.030503
0.0284628
0.026808
0.0249566
0.023442
0.0215477
0.0209059
0.019779
0.0195432
0.0174165
0.016339
0.00815773
0.0163533
0.041695
0.0496343
0.0427897
0.0381336
0.0356572
0.0328883
0.0271426
0.0306622
0.0260689
0.0252936
0.0278065
0.023835
0.0308127
0.0317912
0.0329221
0.0336017
0.0346342
0.034898
0.036842
0.035962
0.0361016
0.0363978
0.0364171
0.0347466
0.0335847
0.0359311
0.0354265
0.0321705
0.0309576
0.0296331
0.0277066
0.0261401
0.0231176
0.0212878
0.0206863
0.0193739
0.0174096
0.016467
0.00718609
0.0123336
0.0238078
0.0520688
0.0410522
0.0302702
0.030785
0.0289292
0.0239393
0.0287482
0.0240915
0.0230559
0.0242743
0.0203469
0.0296808
0.030242
0.0318851
0.0328454
0.0336238
0.0348368
0.0353821
0.0356972
0.0359978
0.0361641
0.0344951
0.0333678
0.0356412
0.0359825
0.0348422
0.032425
0.0319746
0.0306061
0.0295891
0.027231
0.028903
0.0263319
0.0243771
0.022497
0.0207005
0.0221707
0.0193401
0.0172283
0.016107
0.00593878
0.0145922
0.0225893
0.0319452
0.0478825
0.0324929
0.0418983
0.0284131
0.0266944
0.0245422
0.0169407
0.0265644
0.0200299
0.0192757
0.0227625
0.0176846
0.0271812
0.0289095
0.0310945
0.0317959
0.033111
0.0343283
0.0348469
0.0349774
0.0356532
0.0359561
0.0360378
0.0336816
0.0354427
0.0356892
0.0345353
0.0322458
0.0315707
0.0308081
0.0280624
0.0290092
0.0257713
0.0276224
0.0238588
0.0223419
0.0231171
0.0204874
0.0188966
0.0171454
0.0163437
0.00847974
0.0131534
0.032897
0.050281
0.0353873
0.0202224
0.020377
0.0198523
0.0147612
0.0147008
0.0241239
0.0178172
0.0160098
0.0205318
0.0123878
0.0253567
0.0265441
0.0296782
0.0313419
0.0313711
0.0321376
0.033398
0.033765
0.0343725
0.0345194
0.0352732
0.035398
0.0355821
0.0331313
0.0351546
0.0338715
0.0348453
0.0316303
0.0309117
0.0299789
0.0268439
0.0279384
0.0251732
0.0231182
0.0246747
0.0202286
0.0223215
0.0188392
0.0170849
0.0160706
0.00500961
0.0131202
0.0442113
0.0189717
0.0438883
0.0293918
0.0135347
0.018474
0.0164272
0.00886379
0.00795146
0.0209315
0.0131198
0.0121895
0.0171288
0.00831731
0.0222999
0.0253438
0.0290189
0.0309583
0.0313931
0.0316925
0.0329059
0.0331177
0.033707
0.0339228
0.0349026
0.0350906
0.0353226
0.0332928
0.0350154
0.0337848
0.0343158
0.0325634
0.0318337
0.0300947
0.0265801
0.02904
0.024755
0.0254946
0.0217292
0.0229848
0.0203336
0.0190391
0.0171169
0.0160519
0.0101837
0.0380932
0.0210477
0.0306662
0.043096
0.00656871
0.0116479
0.0085565
0.00265299
0.0044803
0.0204717
0.010441
0.00799047
0.0136513
0.00375451
0.0201232
0.0266695
0.0226482
0.0300139
0.0279603
0.0303271
0.0322155
0.031088
0.0331072
0.0335901
0.0335883
0.034651
0.0351058
0.0351263
0.0346803
0.0331571
0.034299
0.0325573
0.0319704
0.0312441
0.0279618
0.0290586
0.0257337
0.0269015
0.0218498
0.0242491
0.0204755
0.0188928
0.0170997
0.0169445
0.0162258
0.00814703
0.0448005
0.0189129
0.023461
0.0462452
0.030125
0.00411443
0.00474428
0.00927938
0.00286641
0.000761708
0.000611889
0.0167804
0.00541733
0.00554911
0.00929118
0.00185648
0.0207013
0.0166941
0.024962
0.0224087
0.0292758
0.0280538
0.0304034
0.0295185
0.0317746
0.0310872
0.032527
0.0330939
0.0337869
0.0329566
0.034303
0.034754
0.0348419
0.0345897
0.0328821
0.0338529
0.0312338
0.0279817
0.0302455
0.0270227
0.0254722
0.0235682
0.0245673
0.0221081
0.0197465
0.0186666
0.0185316
0.0169644
0.0159325
0.0129887
0.00590719
0.0342769
0.0216706
0.0131922
0.0450158
0.0256623
0.00110482
0.00103576
0.00426789
0.000201053
0.000407812
0.000333272
0.000579742
0.00349756
0.0025723
0.00762258
0.000332612
0.01733
0.0150988
0.0253287
0.0201277
0.0270013
0.0296283
0.028661
0.031977
0.0305399
0.0325639
0.0332708
0.0325881
0.0342295
0.0344587
0.0346254
0.0342126
0.0331772
0.0339107
0.0320913
0.0292302
0.0300308
0.0280359
0.0264317
0.0236122
0.0259732
0.0225043
0.0213405
0.0201381
0.0187503
0.0170454
0.0159557
0.0119071
0.00590065
0.0408011
0.0157842
0.00694552
0.0475457
0.0315398
0.0138785
0.000511626
0.00325693
0.00124633
0.000425261
0.0011602
0.00118264
0.00103339
0.000832315
0.0013721
0.00355398
0.0086249
0.000911539
0.000648253
0.0168808
0.0105192
0.0237105
0.0206102
0.0272824
0.028729
0.0297238
0.0313371
0.030586
0.0319703
0.03267
0.0334005
0.031993
0.0338697
0.0341893
0.0343491
0.0340678
0.0328964
0.0333056
0.0320997
0.0290408
0.0308173
0.027664
0.0246477
0.0268537
0.0239396
0.0217401
0.0201685
0.01872
0.0169579
0.0166727
0.0159779
0.0104924
0.0103512
0.0330189
0.0178519
0.0422556
0.0302293
0.00490336
0.00143561
0.00125467
0.00026561
0.000839207
0.0015597
0.00123091
0.00144985
0.000404082
0.000564661
0.00259708
0.0042127
0.0016586
0.00133859
0.012634
0.00924309
0.0241684
0.0180896
0.0262377
0.0270418
0.0291622
0.0313681
0.0297812
0.0323187
0.0330569
0.0315682
0.0338494
0.0341562
0.0336592
0.0330368
0.031617
0.0301853
0.028062
0.025932
0.0267705
0.0247969
0.0231812
0.0220044
0.0198911
0.0183403
0.0181298
0.0167776
0.0157697
1.3811e-11
0.00999369
0.0373246
0.0144497
0.0423805
0.0191957
0.0017907
0.00113877
0.000199169
0.000990804
0.00033591
0.00121296
0.00115807
0.00106207
0.00160275
0.000660607
0.00063297
0.00103723
0.0030608
0.00158868
0.00146672
0.00126546
0.0120806
0.00495408
0.0228051
0.0145402
0.0197927
0.0261012
0.028202
0.030925
0.0297944
0.0324932
0.0317065
0.0332254
0.0327307
0.0310762
0.0335501
0.0338122
0.0335888
0.0331735
1.58736e-11
0.0320085
0.0303346
0.0287883
0.026065
0.0281532
0.0245558
0.0233243
0.021661
0.0195621
0.0193413
0.0183344
0.0159261
1.04098e-11
0.0086887
0.0313592
0.011133
0.0173135
0.0425
0.0162333
0.000819734
0.000793853
0.000253632
0.00102454
0.000984603
0.000924432
0.00101563
0.00104215
0.000874022
0.00125154
0.00107884
0.000823864
0.00122378
0.00149275
0.00156673
0.0015192
0.00777725
0.00471294
0.0236147
0.0129026
0.0182928
0.0265853
0.027944
0.030425
0.028975
0.0320157
0.0314112
0.0329661
0.0324594
0.0307663
0.0335993
0.0332368
0.0326939
0.0313931
0.0296723
0.0288313
0.0270487
0.0282626
0.0256255
0.0244337
0.0226371
0.0204069
0.0194956
0.0188602
0.0171295
0.0161236
0.0374268
0.00928157
0.0140306
0.0303765
0.0453623
0.00701148
0.000176254
3.57725e-05
0.000657353
0.000989391
0.000875469
0.00106716
0.000562688
0.000743171
0.000720199
0.000639105
0.00103176
0.00101991
0.000591725
0.00120207
0.00149571
0.00172339
0.0072866
0.0018692
0.0213066
0.00952133
0.0154586
0.0243412
0.0269205
0.0300957
0.0289627
0.0316141
0.0319934
0.0310082
0.0326112
0.0330988
0.030262
0.0333205
0.0331387
0.032828
0.0314627
0.0298013
0.0268778
0.0289707
0.0253492
0.0250978
0.0239647
0.0216504
0.0209466
0.019997
0.0173794
0.0166893
0.0157038
0.0322656
0.00931799
0.0174307
0.0256466
0.0376822
0.0137224
0.00195676
0.000585717
0.000653204
0.000589177
0.0013217
0.000665812
0.00067091
0.000554055
0.000631812
0.000673034
0.000762807
0.00102628
0.000744924
0.00113466
0.00151353
0.00165576
0.0036626
0.000945194
0.0217142
0.00896255
0.0147852
0.0248629
0.0270974
0.02969
0.0280394
0.0311593
0.031718
0.0307747
0.0323296
0.0327191
0.0300479
0.0328305
0.0324794
0.0304909
0.0320393
0.0275694
0.0289557
0.0297518
0.0259923
0.0249783
0.0242386
0.0220525
0.021174
0.0205085
0.0194092
0.0179006
0.016596
0.0159316
0.0347813
0.00622715
0.014067
0.0385684
0.00874528
0.000987274
0.000670835
0.000617365
0.000764749
0.00050848
0.000573074
0.000441371
0.000562962
0.000613831
0.000652739
0.000647505
0.0014626
0.000645849
0.000958
0.0012069
0.00141181
0.00170089
0.00294686
0.000717443
0.0193958
0.00488011
0.0113628
0.0165225
0.0238555
0.0262085
0.0294051
0.0280589
0.0311165
0.0314471
0.0319722
0.0304108
0.0326097
0.0296898
0.0301155
0.0326696
0.0324906
0.0303959
0.0319048
0.0269065
0.0284326
0.0297752
0.0263621
0.0255114
0.0232768
0.0224133
0.022148
0.0194695
0.0178614
0.0169118
0.0161557
0.0382922
0.030304
0.00538054
0.0182195
0.0113927
0.0319682
0.002313
0.0134014
0.000648051
0.000635249
0.000568935
0.000613801
0.000458305
0.000456664
0.000401187
0.000550419
0.000461075
0.000611643
0.000658746
0.000615585
0.00068097
0.00122032
0.00105415
0.000726532
0.00120371
0.00132304
0.0017207
0.00103074
0.000802098
0.0205239
0.00432834
0.0109442
0.0141441
0.0228383
0.0269473
0.0287096
0.0308128
0.0312867
0.0317712
0.0302619
0.0322428
0.0292754
0.029769
0.0325393
0.0322993
0.0310842
0.0316133
0.0272397
0.0288043
0.0301013
0.0264759
0.0254897
0.0234261
0.0227998
0.0227713
0.0205398
0.0187887
0.0184222
0.0167882
0.0158396
0.038877
0.0347442
0.00296724
0.0146541
0.0104993
0.0342451
0.000292812
0.00350455
0.000706983
0.000590442
0.000520462
0.000419404
0.000434437
0.000389641
0.000375445
0.000355386
0.000426445
0.000546912
0.000678184
0.000582638
0.000657908
0.00164985
0.000752267
0.000831403
0.00159474
0.000957912
0.000843269
0.000941108
0.0192883
0.00594065
0.00196234
0.00815615
0.0141611
0.0235721
0.0267972
0.0285402
0.0305116
0.0308887
0.0314085
0.0319715
0.0298082
0.03023
0.0294153
0.0320456
0.0319978
0.0307306
0.03171
0.0281064
0.0294462
0.0299659
0.0277086
0.024407
0.0263449
0.0241607
0.024012
0.0219713
0.020001
0.0194925
0.0181508
0.0166593
0.0161422
0.0378596
0.0322437
0.00960321
0.01105
0.0190403
0.00995475
0.0213887
0.00137778
0.000678157
0.000632755
0.000422333
0.00041572
0.000344472
0.000354918
0.000326057
0.000322378
0.000323017
0.000384462
0.000485141
0.000601932
0.00067122
0.00050785
0.000675173
0.00156158
0.000726511
0.000817436
0.00155936
0.000919958
0.000907753
0.00109226
0.0015116
0.0159961
0.0215862
0.0031726
0.00941963
0.0256798
0.0278704
0.0302418
0.0306102
0.0311466
0.0317219
0.0294516
0.0298546
0.0292451
0.0319449
0.0317148
0.0308849
0.0313476
0.0283154
0.0295819
0.0304814
0.0278391
0.0272871
0.0259416
0.0248854
0.0245669
0.0247325
0.0220713
0.0210059
0.0193004
0.0207423
0.0180364
0.0172846
0.0159147
0.0393458
0.0365521
0.0101525
0.0156918
0.00783742
0.019226
0.00125637
0.000666948
0.000613179
0.000333115
0.0003629
0.000304057
0.000307019
0.000286991
0.000276574
0.000289333
0.000336045
0.000395564
0.000544934
0.000668928
0.000450848
0.000675112
0.000699435
0.00155726
0.00073642
0.000996626
0.000984996
0.000796587
0.00180179
0.0150656
0.0217247
0.00307468
0.00785267
0.026214
0.0277803
0.0299364
0.030292
0.0307476
0.031408
0.029493
0.0298215
0.0290395
0.0314378
0.0314181
0.0291142
0.0303766
0.0286631
0.0276872
0.0263829
0.0256137
0.0241924
0.0257057
0.0230874
0.0205696
0.0217534
0.0189698
0.0188146
0.0171488
0.015795
0.0313428
0.0354088
0.00821305
0.0215651
0.0126369
0.00792737
0.0132576
0.000171723
0.000803578
0.000470626
0.000299128
0.000320989
0.000278531
0.000282372
0.000265409
0.000242085
0.000243639
0.000300819
0.000330973
0.00048413
0.000584373
0.000680242
0.000366372
0.000697108
0.00121547
0.00174342
0.000717047
0.000785653
0.00154435
0.00133136
0.0166664
0.0128241
0.0237527
0.0190099
0.00427749
0.00951813
0.0258661
0.0287209
0.0296757
0.0300222
0.0304949
0.0311025
0.029295
0.0294771
0.0289842
0.0312131
0.0312596
0.0293259
0.0306645
0.0283956
0.0271784
0.0261985
0.0249818
0.0227397
0.0215694
0.0202774
0.0200044
0.0189066
0.0167369
0.0158763
0.0325931
0.0363554
0.00777788
0.0193919
0.00826902
0.00793121
0.000588735
0.000612034
0.000366794
0.000267037
0.000301767
0.000231838
0.000270351
0.000247558
0.000213412
0.000219123
0.000279217
0.000315779
0.000446382
0.000545481
0.000663661
0.00032413
0.00068295
0.00126754
0.00163716
0.000693873
0.000817319
0.00160436
0.000833774
0.0138203
0.0232174
0.0192054
0.00369104
0.00603133
0.0270076
0.0280794
0.0293539
0.0295567
0.0301293
0.0305523
0.0308229
0.0291536
0.0293273
0.0288424
0.0308121
0.0298623
0.0304347
0.0287007
0.0274668
0.0257753
0.026873
0.0244672
0.0234556
0.022741
0.021008
0.0200687
0.0191281
0.0182242
0.0165149
0.015556
0.0236545
0.0350819
0.00352282
0.0155546
0.0227209
0.00640144
0.00210426
0.000231843
0.000661441
0.000296812
0.000215161
0.000288582
0.00020791
0.000245008
0.000218179
0.000186215
0.000187434
0.000265076
0.000305164
0.000486081
0.000357907
0.000580295
0.000310042
0.000676292
0.000992087
0.00166825
0.000695621
0.000701496
0.00152214
0.000781411
0.00131872
0.013523
0.0208717
0.0247023
0.0161537
0.00250125
0.00659777
0.0262933
0.02841
0.0290508
0.0292716
0.0297582
0.03004
0.0306293
0.0306893
0.0290595
0.029063
0.0287133
0.0288584
0.02983
0.0282295
0.0293395
0.0263063
0.0270527
0.0249631
0.022978
0.0221133
0.0211689
0.0204816
0.0191531
0.017772
0.0164651
0.0157281
0.0227394
0.0347962
0.0130121
0.0237414
0.00107229
0.00426645
0.000306508
0.000624031
0.000265177
0.000193117
0.000270956
0.00028713
0.000178573
0.000231072
0.000181983
0.000176207
0.00016081
0.000175378
0.00024042
0.000455733
0.000332508
0.000517355
0.000303457
0.000652241
0.00113248
0.00163375
0.000704277
0.000720685
0.00215077
0.000942584
0.00066648
0.00849604
0.0202912
0.0242376
0.0164595
0.00365983
0.0271893
0.0279698
0.0289286
0.0289615
0.0290391
0.029288
0.0294689
0.0298744
0.0302747
0.0302994
0.0285486
0.0287519
0.0283499
0.0294729
0.0260248
0.0276855
0.0241373
0.0221998
0.0206212
0.0190231
0.0179447
0.0165194
0.0155848
0.0116812
0.0212129
0.0305726
0.0198941
0.0104266
0.0109219
5.24595e-05
0.000622108
0.000296099
0.000209054
0.00015724
0.000180802
0.000252793
0.000269686
0.00015757
0.000197387
0.000168164
0.000151319
0.000161128
0.00014636
0.000148916
0.000222642
0.000367107
0.000315446
0.000508121
0.00028254
0.00065813
0.000558891
0.000898219
0.00176632
0.000703746
0.000751131
0.00178506
0.000897357
0.00740704
0.0222337
0.0253453
0.0158145
0.00368845
0.0269745
0.0281866
0.0286928
0.0286866
0.02866
0.0288088
0.0292681
0.0300181
0.0294857
0.0301928
0.0284878
0.0289284
0.0298344
0.0263807
0.0277442
0.0242539
0.0230857
0.0215196
0.020194
0.0189106
0.0180296
0.0161609
0.0152835
0.0146357
0.0312746
0.018679
0.0124176
3.75393e-05
0.000562734
0.000198262
0.000201742
0.000136393
0.000149253
0.00023554
0.000267388
0.00013855
0.000179591
0.000159479
0.000138528
0.00014463
0.000138586
0.000191798
0.000351518
0.000307013
0.000387009
0.000280789
0.000583387
0.000499659
0.00111149
0.00158913
0.000700218
0.000757045
0.00172655
0.000732735
0.00827104
0.0222238
0.0265835
0.0244836
0.0117862
0.0188047
0.00132318
0.0278393
0.0284118
0.0285199
0.0284832
0.028428
0.0286675
0.0289313
0.0292464
0.0296465
0.0293856
0.0283369
0.0288863
0.0260082
0.0272086
0.0282849
0.025031
0.0230856
0.022423
0.0212235
0.0199097
0.0188467
0.0184618
0.0176146
0.0160942
0.0153233
0.00867466
0.0233843
0.0278553
0.0196637
0.00859806
0.000608616
0.000497717
0.000212879
0.00018738
0.000121466
0.000134157
0.000225744
0.000243957
0.000124834
0.000164513
0.000146012
0.000124566
0.000139896
0.000126929
0.000178781
0.000318553
0.000371052
0.000258972
0.000562703
0.000416254
0.000907199
0.0017355
0.000720862
0.000681567
0.00181757
0.000843604
0.00499856
0.0215033
0.0270772
0.0250294
0.0121425
0.0182828
0.00245602
0.0280426
0.0282678
0.0283476
0.0282008
0.028112
0.028198
0.0285444
0.0288682
0.0294009
0.0289057
0.028107
0.0291354
0.0264235
0.0273847
0.0280645
0.0246993
0.0237648
0.0230947
0.0219458
0.0210386
0.0200264
0.0196898
0.0176138
0.0159011
0.0149887
0.00195026
0.0210115
0.0292173
0.0177527
0.00239158
0.000516113
8.70051e-06
0.000142448
0.000143912
0.000188158
0.000117587
0.000111498
0.000113942
0.00019359
0.000237444
0.000115098
0.000156762
0.00013524
0.000117319
0.000120779
0.000126238
0.000120026
0.000165909
0.000309148
0.00032973
0.000259693
0.00042943
0.000595839
0.00108757
0.00161125
0.000716616
0.000699311
0.0016318
0.000770351
0.00597786
0.0232545
0.026242
0.0277426
0.00855392
0.0153823
0.0207385
0.00102708
0.0281734
0.028093
0.0280821
0.027811
0.0279657
0.0281838
0.0287457
0.0287259
0.0279287
0.0269555
0.026314
0.0281205
0.025185
0.023009
0.0218857
0.020998
0.0203956
0.0184572
0.0171657
0.0157855
0.0151356
0.00074787
0.0225298
0.00718533
0.0253476
0.027809
0.0185481
0.0141848
0.00148493
0.000675856
0.000149083
0.000316169
0.000123378
0.000186691
0.00010348
9.84821e-05
0.000102626
0.000183767
0.000197094
0.000103116
0.000143371
0.000122982
0.000135577
0.000104006
0.00010797
0.000107291
0.000164818
0.000290339
0.000323822
0.000227017
0.000378323
0.000492014
0.000936835
0.00176743
0.000637686
0.00077184
0.000668507
0.00184319
0.000877596
0.00282271
0.0228903
0.0264027
0.0278244
0.00927553
0.0157694
0.0206485
0.0280422
0.0279087
0.0278417
0.0275673
0.0276929
0.0279827
0.0282596
0.0284618
0.0276096
0.0269523
0.0259592
0.0275814
0.0249157
0.0234683
0.0228455
0.0219878
0.021518
0.0197777
0.0181903
0.0171019
0.0157692
0.0149049
0.0193425
0.00434234
0.0252772
0.0282512
0.0160833
0.0134408
0.00450667
0.00032066
1.01486e-05
6.52901e-05
0.000107158
0.000139035
0.000194404
9.9682e-05
9.76584e-05
9.05347e-05
9.92028e-05
8.89966e-05
0.000183177
9.69794e-05
0.000139462
0.000115274
0.000120744
0.000101807
0.00010268
0.00015389
0.000286231
0.000303023
0.000338618
0.000199458
0.000239736
0.000415809
0.000533061
0.00123786
0.00167451
0.000656085
0.000752152
0.00070478
0.00163648
0.000846267
0.00341304
0.0242004
0.0256079
0.027282
0.0277079
0.00598711
0.01296
0.0189244
0.0230394
0.0279312
0.0277308
0.0274475
0.0274209
0.0275522
0.0276305
0.0276194
0.0279612
0.0280306
0.0271666
0.0270915
0.0261437
0.0276515
0.0242321
0.0255834
0.0232904
0.0230156
0.0220384
0.0221827
0.0202163
0.0192572
0.0181684
0.0171048
0.015713
0.0150279
0.0241786
0.0104002
0.0188111
0.0270273
0.0119679
0.000261486
5.13267e-05
0.000101737
0.000118048
0.000179249
8.82043e-05
8.81266e-05
8.3081e-05
8.7312e-05
8.12843e-05
0.000158663
0.000186656
8.93204e-05
0.000126758
0.000107687
0.000118561
9.13845e-05
9.44537e-05
0.000265111
0.000293167
0.000334069
0.000184591
0.000216942
0.00036898
0.000438151
0.00116146
0.00184104
0.000770713
0.000546649
0.000719604
0.000756313
0.00180039
0.00170956
0.000717521
0.0262067
0.0271339
0.0278208
0.00764174
0.0139487
0.0194524
0.0236059
0.0277068
0.027537
0.0271663
0.0270366
0.0271916
0.0272036
0.0275565
0.027319
0.0274573
0.026826
0.0266845
0.0273255
0.0242451
0.0255157
0.0236212
0.0230667
0.0231319
0.0219377
0.0210768
0.0192728
0.0182095
0.0171187
0.0156079
0.0146879
0.0195834
0.00342972
0.0174789
0.0270605
0.0128364
0.000281034
0.000190281
8.54177e-06
0.000107026
8.83228e-05
8.36481e-05
7.63726e-05
7.92437e-05
8.22847e-05
7.43067e-05
0.000144532
0.000159251
8.61695e-05
0.000124545
0.000101793
0.000110329
8.79792e-05
9.09755e-05
9.36403e-05
0.000263457
0.000300572
0.000275873
0.000314619
0.000159809
0.000193629
0.000233476
0.000387688
0.000468846
0.00146819
0.00176727
0.000772715
0.000592263
0.000713332
0.00079733
0.00152613
0.0022959
0.000871748
0.0256604
0.0275445
0.0276444
0.0276653
0.0117955
0.00574588
0.0173057
0.0222129
0.0273493
0.0268837
0.0268715
0.0269564
0.0269718
0.0269534
0.0272467
0.0268235
0.0264249
0.0268206
0.0248317
0.0259515
0.0244189
0.0236472
0.0225209
0.0211696
0.020432
0.0193322
0.0182639
0.0168467
0.015496
0.0148503
0.0220139
0.00103682
0.0175225
0.0277014
0.0228241
0.00864037
0.000276693
0.000139626
3.47877e-07
9.58379e-05
8.45978e-05
7.66581e-05
7.17889e-05
7.24125e-05
7.3577e-05
6.98095e-05
0.000130016
7.88626e-05
0.000112131
0.000103992
8.17853e-05
8.28385e-05
8.97531e-05
0.000286705
0.000267049
0.000326009
0.00013918