/*--------------------------------*- C++ -*----------------------------------*\
| =========                 |                                                 |
| \\      /  F ield         | OpenFOAM: The Open Source CFD Toolbox           |
|  \\    /   O peration     | Version:  v1912                                 |
|   \\  /    A nd           | Website:  www.openfoam.com                      |
|    \\/     M anipulation  |                                                 |
\*---------------------------------------------------------------------------*/
FoamFile
{
    version     2.0;
    format      ascii;
    class       volScalarField;
    location    "10000";
    object      omega;
}
// * * * * * * * * * * * * * * * * * * * * * * * * * * * * * * * * * * * * * //

dimensions      [0 0 -1 0 0 0 0];


internalField   nonuniform List<scalar> 
71770
(
1.48244e+09
1.48247e+09
1.48248e+09
1.48245e+09
1.4824e+09
1.4824e+09
1.4824e+09
1.4824e+09
1.48242e+09
1.48257e+09
1.48261e+09
1.48246e+09
1.48242e+09
1.4824e+09
1.48241e+09
201361
264279
6.68434e+07
2.61447e+07
6.34342e+06
1.21884e+07
2.3275e+08
2.32752e+08
3.56236e+06
630176
893589
463383
1.33907e+06
2.12441e+06
348387
6.68438e+07
2.61447e+07
1.21882e+07
6.34291e+06
34245.6
92139.8
118931
117752
91609.2
71682.4
56335.2
90365.2
70751.7
55707
54407
116261
44429.5
44044.5
43079.7
201012
263388
154223
199971
153515
152436
118621
92182.5
71966.1
56396.7
198874
150864
197517
69104.6
88441
114251
69230.6
892682
628994
462036
461461
628983
347126
346102
345929
33068.9
32900.6
33008.8
33488.2
262206
261391
260679
33530.3
67981.4
87560.1
53311.7
88559.9
68147.1
42148.7
41693.7
53028
53447.5
41714.2
54352.4
42129.1
43022
1.34116e+06
464247
1.21882e+07
3.56255e+06
2.12454e+06
2.12632e+06
1.34531e+06
899557
634166
3.56386e+06
346385
2.61449e+07
6.68453e+07
2.32757e+08
2.61453e+07
1.21885e+07
6.34313e+06
6.68465e+07
2.61459e+07
1.21891e+07
6.34403e+06
150143
205265
199477
274141
279588
266606
90568
210260
154075
116310
158239
119407
642447
469992
349305
480538
357348
366194
489990
1.35438e+06
909069
3.56627e+06
2.1297e+06
3.57164e+06
2.13714e+06
654552
663707
371727
261284
495372
668743
2.32761e+08
2.32764e+08
2.61466e+07
1.21901e+07
6.34558e+06
6.68474e+07
2.32758e+08
1.21918e+07
6.68444e+07
1.21936e+07
2.61472e+07
2.32751e+08
2.61469e+07
6.6846e+07
6.34897e+06
3.57732e+06
6.35249e+06
2.14942e+06
2.14531e+06
1.36494e+06
921164
1.37097e+06
929071
2.15178e+06
1.37437e+06
933445
2.61476e+07
1.21943e+07
3.57986e+06
6.35394e+06
2.3275e+08
6.68445e+07
6.68446e+07
2.3275e+08
2.61478e+07
3.58134e+06
3.5827e+06
2.15384e+06
1.21948e+07
6.35478e+06
1.21952e+07
6.35561e+06
2.6148e+07
6.68447e+07
92877.5
122415
95606.2
214027
217601
283376
161758
165287
125650
70794
72889.5
286772
378508
936476
941104
499992
672605
673150
499072
1.3772e+06
936865
672423
375446
2.3275e+08
938471
674604
501724
1.37818e+06
2.15432e+06
1.3763e+06
3.58288e+06
6.35568e+06
1.21953e+07
2.32753e+08
6.68454e+07
2.61483e+07
3.58167e+06
2.15267e+06
3.58713e+06
1.38308e+06
2.15946e+06
1.21958e+07
6.35513e+06
2.61506e+07
2.32777e+08
6.68524e+07
97939.6
127934
57455.3
74971.4
96195.5
120111
218663
162434
167144
124845
157587
212418
208801
286789
57138.6
74146.8
496257
967175
508906
693672
377489
371060
376201
279710
279305
92272.2
71227.8
55104.5
89127.8
68568.8
116914
207524
154979
42692.5
1.41026e+06
705602
379935
516510
981965
1.42457e+06
280119
6.3589e+06
1.21981e+07
2.32784e+08
6.68545e+07
2.61522e+07
6.68494e+07
2.32761e+08
2.18347e+06
3.60554e+06
6.37115e+06
3.61226e+06
2.19442e+06
1.22047e+07
2.61536e+07
6.37429e+06
1.22056e+07
1.33844e+06
893095
2.12399e+06
1.33902e+06
895256
630639
462214
3.56211e+06
6.3428e+06
114037
196587
149122
55802.4
44200
44087
2.32754e+08
6.68444e+07
1.48248e+09
189027
139588
260053
363072
6.42025e+06
1.2233e+07
2.61641e+07
6.68471e+07
2.32753e+08
2.26367e+06
3.67415e+06
1.02428e+06
1.48726e+06
721811
511328
1.48248e+09
2.61534e+07
6.68493e+07
2.32763e+08
4419.98
2520.21
12348.8
2269.56
1946.84
18432.1
7697.31
3416.17
1662.28
1894.55
1629.71
16130.4
10865.6
2561.07
1719.43
1465.55
1638.85
1475.67
1532.54
14870.1
15535.2
9817.07
3044.55
1485.36
1335.2
1524.32
1340.26
1435.76
1433.4
13594.5
12964.3
5843.34
2111.13
1591.03
1361.47
1265.58
1286.46
1417.88
1339
1265.71
1376.59
1360.43
1377.99
13464.3
4684.58
2453.68
1444.99
1301.02
1308.33
1233.47
1244.3
1282.89
1215.66
1311.38
1301.21
1324.88
1343.49
8140.63
9525.44
2140.91
1566.44
1338.57
1283.6
1308.94
1206.56
1237.38
1238.04
1209.32
1197.46
1282.12
1250.59
1261.74
1292.75
1305.34
8259.37
6995.05
3212.19
1482.26
1340.62
1269.34
1311.28
1206.24
1251.6
1221.6
1219.64
1181.95
1179.24
1237.27
1219.75
1243.42
1267.23
1284.54
8858.56
4357.96
7516.54
2290.38
1364.08
1647.12
1358.47
1300.11
1352.95
1194.63
1259.2
1233.02
1189.63
1168.42
1179.96
1184.41
1205.08
1219.61
1240.73
1272.87
9180.69
4041.2
3811.46
1381.76
1430.83
1405.6
1328.53
1399.1
1206.85
1282.95
1230.05
1154.99
1172.16
1167.53
1176.95
1202.15
1238.2
1232.06
1242.93
7631.78
6445.42
2577.61
1402.57
1436.49
1456.94
1420.14
1313.22
1375.01
1403.38
1448.81
1206.78
1283.43
1253.7
1146.27
1160.17
1184.23
1150.2
1153.69
1169.71
1205.35
1219.58
1256.53
7979.61
3665.35
5879.87
1615.04
1442.76
1425.37
1518.05
1488.57
1352.93
1394.04
1467.99
1498.93
1228.57
1319.14
1257.25
1139.77
1156.53
1173.36
1142.86
1150.03
1174.98
1185.19
1225.16
1248.56
7025.4
6150.62
3064.76
1639.16
1500.34
1468.43
1536.22
1576.25
1353.57
1442.5
1495.51
1570.68
1239.78
1320.52
1290.86
1134.76
1144.17
1179.85
1137.09
1155.42
1163.31
1189.44
1226.34
1257.97
5447.42
6425.6
2141.62
1503.47
1564.38
1530.53
1609.21
1649.36
1394.37
1441.95
1554.26
1629.9
1285.75
1228.88
1356.9
1131.36
1144.21
1160.85
1201.04
1133.25
1138.62
1145.25
1168.5
1186.4
1231.7
1254.99
5994.76
4621.13
2255.9
1530.9
1638.52
1579.07
1574
1722.58
1390.67
1486.61
1570.25
1610.63
1717.06
1318.55
1244.21
1359.6
1130.35
1135.65
1162.03
1211.91
1128.84
1135.42
1147.5
1166.65
1191.15
1240.08
1275.61
5929.53
4321.19
1709.36
1540.15
1712.91
1672.51
1655.07
1767.63
1765.06
1433.14
1475.51
1537.03
1641.01
1671.02
1764.82
1317.13
1276.18
1407.55
1136.3
1175.91
1146.31
1204.64
1128.96
1129.73
1142.24
1150.97
1174.75
1202.85
1259.41
1288.77
5620.32
2750.39
2401.3
1627.08
1567.87
1744.12
1736.87
1847.7
1863
1524.67
1565.72
1678.24
1727.34
1827.78
1378.48
1274.66
1422.78
1175.53
1151.88
1228
1133.63
1137.79
1150.32
1181.15
1158.73
1207.42
1231.17
1268.52
1293.58
5763.32
2395.4
2009.37
1524.61
1672.86
1821.83
1824.24
1898.47
1882.3
1906.11
1540.98
1612.58
1657.71
1742.93
1774.06
1878.3
1823.01
1400.25
1304.24
1497.16
1191.18
1144.27
1223.72
1143.17
1148.56
1176.23
1163.43
1200.85
1225.76
1241.2
1282.86
1312.77
4057.94
4076.17
1355.03
1565.22
1529.83
1710.8
1848.09
1862.54
1958.95
1930.01
1973.27
1606.41
1716.29
1776.79
1758.02
1938.43
1872.19
1474.69
1379.43
1339.24
1275.17
1510.01
1196.04
1150.62
1247.46
1160.34
1182.41
1169.87
1165.77
1191.08
1211.25
1228.78
1257.01
1320.64
4175.51
4179.81
672.436
1531.47
1643.34
1817.87
1913.86
1896.04
1863.65
1959.36
1990.23
1923.66
1995.31
1980.27
1648.91
1721.25
1843.28
1821.78
1930.82
1495.06
1404.5
1358.41
1296.87
1582.99
1223.18
1171.73
1176.18
1185.59
1177.96
1179.88
1201.52
1214.73
1235.36
1250.46
1297.23
1330.81
3541.35
3679.4
1325.22
1560.33
1650.63
1715.19
1818.02
1908.53
1870.33
1874.01
1976.2
2002.37
1933.85
2019.43
2024.62
1641.62
1773.23
1870.15
1833.37
1978.09
1578.44
1456.49
1345.64
1289.32
1239.49
1200.24
1199.19
1194.25
1207.05
1210.13
1228.4
1262.12
1237.12
1300.41
1323.27
1348.69
3989.04
3980.69
2294.13
875.485
1609.61
1714.66
1819.66
1917.8
1819
1822.02
1951.03
1981.86
2016.28
2032.8
2038.47
1717.85
1769.53
1934.87
1895.59
2020.64
1624.99
1475.69
1374.78
1316.86
1262.41
1224
1211.16
1207.52
1218.88
1220.75
1261.2
1244.96
1277.25
1298.78
1330.8
1349.72
2912.06
3988.61
1892.44
1088.09
1584.38
1794.04
1814.6
1801.94
1852.5
1733.25
1801.1
1739.99
1928.51
1946.1
2011.3
2052.1
2070.57
1729.97
1821.55
1960.47
1893.3
2039.78
1618.51
1694.36
1431.99
1565.58
1348.65
1300.5
1274.96
1248.91
1234.88
1227.43
1224.02
1226.57
1255.17
1247.89
1280.03
1304.03
1338.25
1363.41
3370.4
2883.41
1594.08
626.902
1702.02
1776.3
1780.59
1783.97
1819.4
1671.78
1704.39
1643.4
1863.45
1935.88
1973.76
2027.44
2069.31
2084.07
1811.39
2016.01
1960.68
2050.5
1700.95
1450.69
1570.45
1366.72
1328.69
1254.55
1254.55
1247.73
1236.95
1242.08
1260.38
1260.25
1247.61
1268.99
1291.99
1318.04
1350.46
1370.91
3420.78
2596.41
1514.36
460.018
1633.46
1764.86
1771.75
1689.15
1730.52
1568.49
1671.16
1536.17
1796.76
1856.44
1931.54
2015.04
2070.64
2091.37
1851.22
2033.02
2018.5
1929.74
2091.43
1751.63
1520.09
1412.08
1639.46
1324.08
1288.39
1285.74
1269.59
1262.32
1272.27
1272.96
1277.68
1299.08
1316.3
1329.65
1356.35
1375.12
1866.59
3222.86
1766.44
1660.7
1665.69
1673.88
1548.18
1716.33
1496.97
1492.3
1552.47
1364.21
1793.08
1844.2
1954
2038.38
2082.81
2106
1835.82
2077.4
2061.72
1961.17
1755.2
1535.91
1436.08
1710.94
1608.44
1357.8
1310.41
1305.84
1285.77
1283.66
1285.52
1283.23
1299.11
1306.81
1324.11
1334.13
1370.13
1394.79
1846.46
3286.5
1585.88
1559.21
1637.41
1598
1598.97
1550.53
1365.64
1654.28
1361.85
1351.48
1492.8
1262.97
1680.74
1794.29
1915.22
2016.49
2088.57
2110.57
1891.36
2100.03
2069.55
2020.49
1858.17
1499.88
1405.36
1752.42
1642.12
1344.91
1335.88
1324.35
1310.28
1305.34
1295.73
1314.81
1333.2
1353.07
1382.96
1401.23
853.434
2654.42
2489.67
1488.35
1581.11
1358.37
1436.03
1385.48
1208.87
1553.4
1290.28
1267.62
1329.53
1128.55
1636.02
1686.74
1829.97
1941.04
2044.69
2129.32
2129.11
2118.15
2038.19
1885.04
1517.61
1419.92
1716.49
1824.13
1587.84
1374.45
1373.5
1344.36
1346.16
1315.75
1337.3
1320.04
1311.1
1319.82
1342.31
1329.72
1362.79
1395.81
1419.46
731.529
2732.25
2542.13
1976.06
1537.01
1384.84
1601.38
1286.26
1276.03
1228.25
951.066
1460.72
1121.92
1107.18
1274.58
1015.54
1502.62
1625.28
1789.22
1873.64
2039.06
2143.11
2143.13
2144.57
2091.36
2014.06
1955.2
1462.09
1770.76
1841.15
1604.99
1405.11
1390.4
1396.03
1342.41
1360.46
1322.54
1343.12
1321.31
1345.12
1340.84
1362.31
1381.58
1408.12
1424.94
1121.2
2270.27
1843.86
1515.63
1455.96
972.719
1066.23
1048.23
889.746
888.489
1335.22
1042.52
990.013
1189.98
832.314
1426.07
1497.47
1688.44
1826.63
1861.69
1961.97
2087.46
2123.42
2161.29
2168.14
2103.11
2059.6
1918.12
1457.95
1760.92
1554.58
1682.51
1414.01
1420.38
1397.41
1349.52
1365.4
1344.28
1357.51
1350.89
1371.45
1362.13
1390.37
1420.41
1442.94
613.956
2450.74
1555.16
2337.43
1404.48
1227.52
802.509
933.941
894.112
650.963
678.245
1207.53
854.815
840.831
1036.42
681.178
1284.53
1449.3
1660.3
1806.52
1881.78
1957.55
2070.25
2112.2
2167.35
2189.01
2138.97
2069.9
1952.72
1497.03
1823.83
1589.37
1661.36
1470.66
1471.26
1424.09
1360.79
1400.85
1375.01
1373.22
1376.03
1377.61
1387.48
1405.45
1430.2
1454.8
1265.32
1603.42
2172.44
1247.64
1357.34
586.16
672.059
652.425
488.08
529.908
1193.24
770.961
708.77
913.043
552.054
1196.48
1526.13
1326.3
1738.45
1601.5
1810.93
2024.32
1911.25
2133.26
2185.79
2203.35
2129.99
2030.4
1910.52
1796.8
1554.33
1711.61
1496.43
1507.08
1485.39
1399.13
1421.21
1398.6
1402.06
1385.77
1393.1
1396.92
1412.32
1435.43
1448.19
1462.58
986.506
1397.85
2139.87
1047.09
1387.92
1166.6
458.695
519.192
599.93
442.832
372.58
405.552
1044.96
591.57
627.72
747.349
439.892
1228.23
1043.89
1447.52
1321.4
1705.78
1622.24
1843.63
1739.17
2017.2
1939.9
2121.89
2192.1
2208.38
2208.9
2164.88
2038.84
1953.22
1843.37
1567.91
1693.9
1517.41
1416.85
1481.86
1421.08
1405.45
1402.77
1408.84
1408.51
1419.45
1427.66
1435.68
1461.91
1482.95
1415.11
324.852
1570.79
2177.3
719.842
1325.72
1045.14
315.28
360.983
389.015
326.571
304.222
325.008
328.417
542.192
521.727
693.81
346.343
1088.24
985.438
1474.8
1224.79
1567.95
1794.99
1690.75
2065.95
1905.92
2159.08
2232.67
2218.51
2152.41
2089.69
1923.42
1817.1
1620.25
1746.88
1584.33
1471.4
1498.7
1459.31
1434.13
1415.02
1436.32
1421.11
1421.46
1436.04
1451.91
1473.06
1496.05
1246.89
136.918
1377.94
1639.72
527.129
1350.74
1136.18
662.442
263.49
368.588
294.661
244.644
255.271
258.789
287.108
436.403
451.508
546.38
737.515
302.759
353.802
1070.47
806.68
1401.72
1250.27
1596.39
1712.48
1820.46
2035.1
1933.32
2147.79
2243
2223.99
2182.1
2183.52
2083.92
1953.74
1870.07
1629.02
1699.04
1618.7
1488.3
1557.61
1464.75
1439.95
1465.11
1439.7
1435.22
1444.71
1459.5
1479.66
1494.38
1507.04
1182.07
411.949
1421.54
1635.95
1258.48
1131.77
476.015
228.515
278.807
235.895
209.356
237.395
231.53
255.148
379.5
391.297
515.528
590.035
274.533
302.78
908.993
764.114
1432.75
1151.33
1542.58
1601.71
1783.22
2073.65
1865.74
2256.02
2237.05
2177.45
2139.52
2017.95
1862.84
1706.23
1608.41
1550.72
1494.81
1466.75
1479.93
1462.5
1455.07
1462.65
1465.56
1476.47
1485.35
1509.23
1526.17
9.12588e+07
529.051
1300.57
1319.31
1255.42
728.668
306.18
192.105
219.123
202.428
213.836
186.325
204.264
196.736
236.07
342.523
354.959
411.456
541.734
247.626
281.395
304.726
883.173
613.72
1373.11
1002.19
1232.12
1556.76
1710.38
2054.04
1887.21
2282.52
2226.14
2198.97
2269.8
2117.41
2147.08
2023.79
1942.91
1770.58
7.97034e+07
1682.4
1585.82
1530.65
1488.96
1538.51
1470.03
1473.19
1471.3
1471.46
1486.61
1503.84
1535.82
1.19421e+08
335.981
1303.4
514.491
1480.92
1177.76
681.662
251.14
166.619
189.819
170.094
174.076
155.271
189.504
194.185
172.736
213.177
322.113
394.489
439.826
233.517
249.681
292.749
723.263
602.944
1420.94
938.096
1174.01
1597.92
1710.78
1988.04
1804.1
2291.49
2231.21
2206.39
2272.45
2117.01
2091.19
1945.61
1764.24
1665.14
1569.88
1553.19
1527.87
1564.98
1504.92
1497.96
1496.38
1484.56
1496.74
1516.15
1526.86
1555.39
1212.63
330.411
1076.21
892.896
1234.74
494.238
224.102
190.382
139.035
158.839
148.107
152.33
131.533
158.757
166.729
149.57
197.126
335.56
390.104
211.036
237.899
270.765
701.345
509.736
1316.56
801.79
1058.85
1480.57
1644.98
1982.46
1822.98
2280.93
2296.16
2191.18
2248.58
2170.23
2050.19
2103.12
2034.12
1849.27
1707.62
1600.05
1538.56
1610.04
1509.33
1521.91
1521.56
1494.31
1508.63
1520.34
1534.9
1558
1576.57
1167.01
369.35
1154.89
809.159
1008.58
610.699
279.079
172.194
161.862
128.021
146.627
123.725
119.084
112.463
144.887
150.581
168.331
333.099
401.233
206.263
242.784
266.959
569.358
431.668
1343.25
777.661
1031.12
1519.64
1669.7
1916.26
1743.84
2281.48
2308.07
2212.16
2244.24
2187.11
2048.61
2057.3
1848.06
1656.67
1787.89
1579.81
1632.03
1655.2
1539.45
1534.81
1546.77
1512.06
1521.05
1534.71
1536.61
1553.3
1572.57
1586.84
1094.48
161.224
1092.88
998.858
488.31
208.492
151.576
120.083
117.04
106.957
110.99
101.46
100.156
123.546
133.919
155.22
303.609
365.985
193.381
217.219
237.774
280.449
539.368
389.633
1247.36
623.814
892.637
1116.97
1475.05
1618.26
1909.01
1761.59
2318.54
2328.19
2275.21
2186.02
2148.32
1971.46
2101.06
2026.28
1900.44
1681.91
1826.04
1571.29
1620.95
1680.73
1585.98
1590.58
1534.91
1539.87
1556.12
1546.65
1562.45
1583.93
1598.83
1036.94
1112.21
133.305
1242.41
549.009
813.182
256.922
556.458
166.307
115.849
104.247
102.168
92.0238
92.1173
82.1461
101.19
88.7242
111.376
138.12
115.687
158.306
320.894
200.955
173.628
216.097
228.789
270.632
438.595
390.2
1309.54
601.935
875.016
1018.03
1427.65
1681.21
1828.44
2328.61
2339.22
2265.79
2211.18
2156.84
1944.25
2069.62
1960.9
2087.07
1765.46
1823.59
1606.36
1671.05
1718.16
1613.02
1611.43
1551.15
1559.01
1588.4
1561.8
1566.06
1577.47
1602.7
1620.72
1017.78
1037.69
119.032
1015.61
415.348
838.201
180.811
468.648
149.586
101.272
95.3458
78.6083
83.8422
77.4148
74.5366
71.7538
85.2113
99.8319
124.476
104.382
141.96
291.754
173.163
185.433
256.11
200.457
415.363
348.025
1259.75
670.098
517.281
772.866
1016.41
1480.84
1682.72
1835.47
2324.22
2350.46
2300.72
2206.85
2119.55
2262.2
1999.37
1950.84
2067.51
1764.79
1891.84
1653.92
1720.17
1739.52
1684.39
1584.26
1661.68
1594.04
1628.04
1581.16
1569.49
1588.14
1602.34
1618.23
1631.43
932.115
1006.91
21.967
536.94
1053.1
91.9028
639.32
270.014
158.902
114.928
78.1737
83.1199
68.9675
69.1909
64.7099
61.0051
61.5292
79.3553
91.5959
109.16
130.151
94.4585
151.409
292.912
170.243
181.67
258.28
194.55
364.685
443.481
309.071
1113.69
1383.2
558.988
815.712
1608.73
1780.08
2359.59
2359.97
2289.16
2180.74
2092.03
2244.4
2002.55
2003.52
2119.8
1824.03
1892.63
1700.07
1775.21
1806.33
1724.3
1712.29
1665.43
1627.61
1668.09
1641.14
1602.09
1588.1
1600.77
1597.9
1612.79
1630.71
1654.03
928.667
949.152
286.92
965.726
23.6381
617.352
202.242
132.444
104.529
68.0564
76.5495
56.8105
61.7243
54.0568
52.2785
53.3337
67.8212
81.0138
100.478
123.458
88.0179
147.885
159.949
253.66
169.607
205.02
350.687
397.085
288.321
1077.24
1399.29
546.478
761.761
1661.86
1788.55
2353.13
2377.27
2332.91
2223.68
2146.1
2299.19
1982.18
1960.39
2108.43
1769.1
1844.84
1803.6
1770.27
1709.64
1710.38
1670.12
1690.39
1639.25
1624.08
1626.14
1621.84
1631.41
1641.89
1664.53
771.634
917.866
210.413
986.427
454.914
11.3944
373.753
152.991
127.43
82.1426
56.1048
64.8465
50.7927
53.2036
48.9456
44.6144
45.0567
60.0827
73.1558
92.0567
106.736
131.438
77.7615
155.874
226.455
274.792
164.582
181.719
310.913
426.117
1149.51
990.194
1520.36
1271.05
613.187
836.901
1650.42
1901.4
2378.35
2400.55
2342.43
2175.89
2141.58
2281.71
2037.15
1978.8
2049.93
1837.19
1913.12
1824.74
1759.6
1760.52
1726.06
1646.87
1638.5
1632.03
1647.6
1653.86
1664.78
1678.93
786.881
853.433
47.2524
965.326
228.745
311.256
128.156
93.0214
72.4434
48.3959
60.1136
42.9195
50.1307
45.1273
39.0237
40.516
52.5601
65.1673
87.353
100.692
124.849
71.9539
134.578
229.79
263.79
149.438
182.828
301.623
395.98
1032.19
1500.7
1288.89
589.761
704.115
1748.86
1857.62
2342.92
2410.11
2394.52
2310.57
2183
2100.38
2235.66
2036.61
2036.97
1913.91
1945.96
1889.84
1814.16
1764
1803.04
1725.02
1685.95
1675.4
1657.49
1658.37
1663.82
1669.02
1685.41
1701.04
521.405
827.28
27.1619
479.419
934.899
36.4818
191.979
102.992
88.3129
55.6735
39.7849
54.7119
38.3187
44.6287
39.8112
34.3631
34.5095
48.7075
60.19
92.5562
76.8655
106.52
62.7779
131.224
207.378
271.527
149.136
163.962
309.489
348.422
443.699
1018.14
1375.49
1603.62
1158.34
528.631
717.701
1709.99
1927.86
2348.25
2435.85
2394.75
2340.15
2240.98
2095.41
2141.76
2231.91
2017.53
2102.71
1981.12
1882.54
1972.24
1819
1855.23
1776.61
1702.9
1687.83
1690.23
1685.47
1684.42
1691.56
1704.95
1718.16
478.333
833.919
392.115
947.434
28.7499
151.767
91.216
70.9505
50.365
35.4942
50.2236
54.4618
33.0555
42.0705
34.5963
32.5013
30.354
32.2467
43.7873
88.7025
72.8839
96.5786
59.4788
116.683
215.838
251.066
136.163
164.226
283.39
345.533
381.427
810.361
1353.65
1585.79
1171.24
579.52
1797.09
1888.02
2276.1
2394.49
2437.54
2453.98
2430.15
2313.2
2204.62
2079.4
2076.21
2141.51
1946.4
2052.9
1835.83
1924.7
1756.56
1712.73
1701.73
1695.07
1706.91
1727.57
1741.13
231.234
463.175
643.611
710.903
140.386
4.03471
107.004
75.8252
54.118
37.8721
29.1753
33.5869
46.397
50.0874
29.0446
36.7182
31.8243
28.1705
30.1638
27.3231
27.5028
40.7534
79.1053
64.4001
95.4706
53.4446
120.737
102.226
201.424
265.541
141.728
178.27
306.951
376.158
756.241
1471.66
1666.66
1148.81
577.739
1794.7
1943.78
2244.37
2384.32
2458.63
2463.54
2427.39
2245.25
2333.86
2141.53
2098.62
2033.66
2126.2
1888.54
1977.93
1788.62
1751.64
1734.66
1724.39
1723.27
1740.12
1750.31
1763.73
273.615
606.987
560.901
173.811
91.9616
65.0603
46.1385
37.9443
25.3161
27.5849
43.0171
49.5915
25.8854
34.1392
29.9066
25.8151
26.8053
25.6148
35.9228
75.9015
61.0118
82.1918
53.0439
105.287
95.2012
219.795
253.568
139.256
175.949
311.16
412.819
798.908
1477.97
1766.57
1617.29
975.964
1307.54
494.332
1902.35
2026.82
2298.87
2439.02
2467.5
2476.6
2459.2
2381.28
2195.04
2272.6
2209.34
2104.28
1902.58
1961.07
2066.89
1848.24
1770.3
1761.06
1745.09
1735.95
1743.35
1764.77
1761.27
1769.35
1779.86
214.951
372.622
618.614
600.628
93.7266
68.2616
89.7379
48.4264
32.8624
22.2317
24.6537
41.2944
44.5961
22.9269
30.9437
27.1197
22.8849
25.8661
23.3883
34.0134
64.683
79.1652
47.8247
102.817
87.1753
202.51
269.327
124.08
159.14
299.925
371.113
665.312
1444.79
1830.94
1665.64
989.172
1286.08
538.736
1954.61
2068.77
2292.72
2440.28
2492.83
2495.79
2432.35
2380.36
2211.21
2230.86
2224.74
2175.73
1961.84
2021.28
2098.58
1864.73
1818.06
1800.08
1779.94
1780.29
1783.07
1791.69
1776.27
1790.88
1804.92
135.688
306.037
608.02
542.996
68.1434
57.2364
68.0701
41.5028
26.1385
34.1595
21.3678
20.1208
20.6714
36.4197
43.3273
20.896
29.3738
25.0442
21.3226
22.0748
23.2361
22.0311
31.2531
61.7787
69.0794
47.9597
87.6301
107.241
215.142
254.031
128.06
160.756
318.723
408.528
702.846
1554.91
1766.28
1917.04
842.012
1154.2
1421.22
476.188
2021.2
2160.99
2393.87
2492.23
2504.92
2455.86
2320.8
2251.68
2338.06
2009.82
1990.35
2161.7
1923.18
1814.29
1800.52
1804.74
1829.54
1798.02
1803.14
1813.39
1824.56
105.738
339.555
143.709
622.893
483.486
623.194
223.586
19.4629
55.8576
43.0071
73.3139
23.3366
30.6452
18.6609
17.6933
18.3924
34.691
36.6464
18.5578
26.7347
22.6248
25.0338
18.7666
19.5222
19.3778
30.9241
54.8568
66.711
42.3384
82.3453
96.9162
204.931
274.337
114.318
143.697
179.795
301.912
383.478
565.333
1541.57
1799.65
1972.52
866.749
1173.41
1423.03
2052.88
2196.6
2408.25
2519.85
2529.87
2428.43
2284.97
2224.28
2355.91
2049.48
1985.53
2162.39
1940.37
1855.99
1848.5
1857.84
1876.78
1827.07
1810.3
1820.05
1838.53
1850.52
277.303
95.2721
604.863
459.049
462.043
220.848
6.31701
42.8482
36.0091
71.152
19.4304
24.9968
31.804
17.8968
17.4851
16.14
17.7372
15.9378
34.3231
17.4717
25.9034
21.2111
22.1826
18.3128
18.5413
28.8907
53.9933
58.852
71.7163
37.535
44.4568
87.9062
101.077
230.614
263.304
117.283
146.834
180.123
325.38
416.254
584.864
1634.75
1739.6
1903.84
1982.37
737.005
1051.82
1335.81
1568.98
2138.88
2281.76
2492.14
2524.8
2542.19
2541.67
2457.02
2358.17
2299.98
2452.18
2102.27
2048.8
2228.62
1909.19
2023.23
1892.85
1900.74
1885.21
1935.87
1864.66
1844.08
1844.39
1855.83
1862.63
1872.12
363.056
143.452
531.516
530.437
92.0995
37.2898
54.8984
18.0531
23.5518
27.5823
15.6797
15.6849
14.8134
15.4756
14.3934
29.6297
34.845
15.9909
23.5029
19.5309
21.7602
16.3772
17.0016
49.0725
56.054
70.303
34.7691
40.8156
81.0006
91.2269
224.22
284.475
132.603
106.19
163.334
198.795
309.433
501.356
379.503
1812.53
1921.77
2078.79
802.794
1096.56
1369.59
1616.48
2176.94
2280.08
2503.77
2557.04
2554.03
2561.31
2506.44
2408.69
2315.07
2480.25
2114.92
2241.64
1947.9
2054.86
1971.49
1956.24
1991.48
1944.88
1908.71
1865.09
1865.89
1875.54
1887.91
1898.23
242.032
106.003
388.222
516.231
113.784
37.8453
28.0404
52.6489
20.2062
15.6037
14.9153
13.4511
14.0886
14.5349
13.0969
27.2575
29.8441
15.3739
22.9357
18.3491
20.0447
15.7536
16.3123
16.827
48.8152
58.4503
51.4727
64.2425
29.8175
36.3072
43.5088
83.4223
94.3254
246.819
273.419
137.413
110.834
165.683
198.721
332.614
530.845
436.906
1777.6
2017.02
2090.03
2163.62
1003.09
730.983
1265.8
1531.06
2329.92
2563.78
2573.73
2581.57
2478.72
2425.55
2344.06
2438.64
2570.63
2180.14
2011.83
2132.97
2044.46
2061.99
2003.92
1939.71
1918.62
1910.31
1907.41
1908.97
1911.92
1922.31
287.144
68.6745
427.203
449.643
482.068
38.3081
30.6118
23.1267
39.671
19.1864
14.6099
13.5776
12.6061
12.7142
12.9233
12.2084
24.1294
13.9956
20.3566
18.7737
14.6406
14.786
16.1437
54.0099
49.6399
67.6111
26.3337
34.8364
42.1339
78.1274
83.9461
242.759
292.171
154.707
127.846
105.504
180.641
220.356
320.714
614.654
447.764
1827.21
2042.59
2166.12
2253.45
1093.27
833.234
1325.05
1571.79
2575.63
2591.55
2560.49
2506.68
2368.98
2280.83
2485.94
2615.42
2198.38
2057.21
2146.8
2126.39
2063.34
2126.19
2003.86
1943.55
1935.51
1926.92
1926.45
1941.49
1951.28
195.829
53.8992
277.32
454.411
463.104
58.4819
23.6459
30.2725
41.9983
16.3761
12.9318
13.3286
12.6677
12.0077
11.9401
12.2988
11.6831
22.7555
13.4732
19.3386
17.4134
13.6689
14.4196
16.4567
14.8349
54.8506
44.8549
62.3386
26.7273
23.5831
31.5394
39.4389
83.9222
274.005
161.88
137.199
113.505
93.9684
181.463
223.16
346.008
608.435
525.703
405.25
1723.31
1933.44
2136.7
2011.12
2256.99
2171.87
1009.08
1256.78
743.7
1467.94
2604.5
2570.65
2448.58
2378.06
2299.34
2587
2419.7
2623.18
2652.23
2213.13
2218.06
2117.08
2226.51
2061.27
1996.83
1988.69
1975.74
1957.52
1967.7
1966.84
1975.25
69.3356
194.118
359.962
452.388
11.1068
20.9232
24.7313
33.8993
15.2891
12.0721
12.2166
12.5715
11.668
11.1002
11.081
11.1726
11.0642
19.99
12.5464
17.5743
12.91
13.3708
15.3578
14.3192
50.7461
43.2039
65.4862
23.5138
28.5971
21.7571
33.6805
38.8442
75.173
276.919
155.582
127.615
103.699
92.3627
196.431
250.858
337.804
540.219
460.086
1751.23
1929.59
2160
2084.65
2321.17
2264.17
1125.39
1352.23
771.053
1513.55
2632.37
2531.23
2612.01
2465
2299.94
2603.91
2469.55
2676.14
2673.1
2177.65
2309.48
2231.59
2086.03
2058.35
2039.82
1982.44
2024.03
1981.97
1987.73
1996.95
2004.73
29.1381
317.935
89.2633
239.712
388.867
14.3847
17.3134
23.5266
33.1609
13.1781
11.154
11.2094
11.7351
10.9918
10.8846
10.8863
10.6345
10.7701
18.8809
11.8797
16.4812
12.0921
12.6905
15.3466
13.4272
44.2337
53.0913
60.0678
23.4244
26.3242
20.066
32.007
80.8653
294.58
163.108
135.552
104.959
197.674
256.888
312.959
394.565
633.761
467.12
1858.5
1641.39
2000.28
2218.69
2070.3
2332.07
1320.55
1084.21
919.47
2520.25
2618.05
2397.98
2567.44
2666.99
2454.9
2690.05
2686.55
2651.3
2216.62
2289.82
2193.65
2107.71
2054.09
2031.09
2060.19
2035.47
2025
2025.11
2023.62
2029.52
307.695
84.8104
274.986
383.84
4.51944
15.899
18.8711
30.4459
12.3779
10.8346
10.6446
10.9898
10.42
10.3025
10.2165
10.3267
10.3099
17.3538
11.1859
16.5366
11.7164
11.9674
12.8466
14.5322
13.4504
41.0882
49.7705
62.2796
21.1062
26.9598
18.9978
32.8939
78.4643
285.569
155.008
177.613
129.198
113.109
97.017
224.423
250.557
335.186
397.295
660.945
575.838
1872.88
1674.8
1980.04
2307.76
2210.62
2138.96
2419.07
1439.73
1251.61
943.717
2567.36
2426.25
2594.47
2677.9
2554.47
2731.71
2679.78
2652.41
2367.47
2240.6
2182.41
2138.05
2130.4
2081.27
2041.14
2074.5
2046.87
2054.37
2056.36
190.548
346.775
48.9273
172.955
350.719
8.73518
13.5502
17.5022
20.6007
33.9481
11.0772
10.1809
10.0997
10.5075
9.93933
9.8899
9.88029
9.97016
9.97623
17.1391
10.7016
14.9271
10.9519
11.4905
11.8627
12.5771
36.3754
44.3212
54.5391
67.841
21.8211
19.3614
25.1851
28.5233
85.6558
301.682
164.933
191.162
139.202
112.371
102.301
220.7
273.108
324.339
429.793
824.909
613.14
1825.05
1605.42
2032.88
2383.24
2275.51
2153.23
2490.93
1393.43
1243.58
1144.37
2570.29
2653.32
2719.61
2593.63
2737.56
2676.91
2625.99
2404.38
2332.85
2208.44
2185.25
2160.06
2098.79
2132.45
2087.24
2091.27
2076.09
2079.73
209.745
299.244
58.3489
141.033
213.249
355.882
6.2657
12.7636
14.2402
18.3989
25.7282
10.6127
9.6214
10.1624
9.50323
9.53116
9.47544
9.54137
9.44246
16.031
10.3767
14.4986
10.7467
11.6717
12.6359
35.5269
41.736
54.2413
67.8007
19.4389
24.0218
18.2921
26.4581
29.4457
77.4881
295.983
154.949
183.805
126.587
103.971
245.076
271.369
342.499
390.049
523.524
901.293
777.563
1882.65
1705.77
2123.37
1998.8
2386.42
2470.39
2237.73
2353.45
2580.04
1532.13
1352.9
1204.38
2510.06
2659.05
2748.19
2700.69
2758.8
2636.7
2363.49
2289.37
2271.51
2226.4
2123.86
2211.06
2114.89
2118.58
2099.92
2099.84
2107.12
146.463
318.047
33.0313
23.5994
145.735
331.89
11.2945
14.731
18.2686
26.7318
9.86627
9.45337
9.15095
9.69008
9.53485
9.23077
9.21733
9.29899
9.28192
9.18182
16.4829
15.0181
10.0905
13.4885
10.3198
10.9095
11.9163
33.2987
43.713
62.4206
48.2782
19.3893
24.4423
26.8957
82.8237
323.155
160.233
195.848
130.594
119.166
95.4657
251.221
298.087
431.834
589.542
1080.28
789.186
1846.06
1665.55
2180.23
2071.79
2490.64
2534.17
2285.61
2404.58
2651.4
1503.01
1324.27
1191.97
2518.11
2718.79
2784.36
2667.68
2746.24
2592.31
2450.71
2315.88
2322.65
2307.56
2205.39
2273.22
2187.37
2160.44
2116.79
2132.75
2141.71
175.674
269.07
47.8811
3.43841
24.2318
204.343
331.863
11.0094
13.5649
15.5417
24.9384
9.57851
9.01273
8.90037
9.48981
9.25132
9.08366
8.96078
8.96239
9.01716
8.84363
15.3679
14.0789
9.5905
13.2294
10.3021
10.8618
12.5103
11.3726
35.0324
40.4012
62.8288
49.4498
21.9171
17.4313
24.3989
27.4359
79.8137
329.28
148.189
179.034
233.559
124.827
101.244
287.694
298.745
521.764
417.364
1167.67
839.857
1929.53
1779.68
2164.42
2264.12
2035.73
2542.79
2635.17
2375.66
2491.63
2734.4
1612.74
1408.2
1327.35
2808.34
2689.99
2602.51
2763.74
2462.19
2397.13
2399.74
2374.36
2266.01
2352.63
2231.14
2176.4
2206.33
2148.97
2159.06
2165.1
2176.58
123.612
289.889
20.2821
14.1901
156.203
315.332
10.0655
10.9044
11.5915
14.2539
23.1017
16.9912
9.08755
8.80986
8.91885
8.67494
9.22844
8.8685
8.70439
8.85659
8.79489
8.66749
14.1518
15.711
9.29433
9.75733
10.2969
12.3421
11.3547
32.0921
43.5788
54.2356
71.9935
21.6706
17.8289
24.428
92.5225
365.59
155.291
186.168
253.114
114.714
148.503
298.49
309.972
585.36
493.814
1185.78
1334.86
723.289
1042.19
1887.72
1747.67
2237.64
2338.15
2079.17
2643.66
2691.55
2444.95
2533.51
2797.44
1561.76
2797.78
2829.8
2637.24
2538.68
2727.81
2470.78
2465.02
2341.87
2402.69
2310.14
2220.71
2250.89
2173.65
2184.06
2207.73
2216.97
154.615
241.042
81.6884
10.2855
44.5549
212.298
309.853
9.70377
10.1138
12.1021
18.4524
15.2567
9.17631
8.56614
8.62675
8.48182
9.05478
8.82119
8.67309
8.55511
8.63892
8.56278
8.44904
13.0125
14.7255
9.09148
9.29983
9.32479
9.8569
10.292
11.0837
33.4212
42.8594
54.4437
72.6152
22.8485
19.4658
15.8921
25.1902
98.8112
373.389
169.513
210.979
295.276
243.382
117.626
154.793
338.825
510.554
1348.57
1505.97
788.798
1098.89
1986.48
1826.9
2233.68
2327.57
2443.66
2162.33
2696.31
2771.84
2621.98
2799.73
1634.14
2818.51
2839.05
2650.84
2548.83
2700.37
2532.23
2360.33
2478.33
2343.44
2254.34
2312.02
2226.97
2225.46
2247.4
2252.2
2254.49
263.544
91.8487
10.2866
21.4054
159.875
297.234
9.67714
11.1117
24.2887
15.2733
12.2772
8.84895
8.45503
8.53716
8.34494
8.63758
8.47671
8.3594
8.51072
8.42439
8.34595
12.8412
13.633
8.99169
9.06727
9.48689
9.86007
10.4906
11.3452
29.2579
39.0113
47.3684
62.2293
83.7003
20.7771
19.2679
15.9302
23.6025
96.3975
429.592
189.622
211.371
319.484
276.221
128.709
167.186
143.544
375.249
596.252
1491.04
1377.53
953.217
715.229
1309.05
1993.15
1917.19
1798.9
2297.6
2413.9
2535.27
2184.5
2692.4
2791.18
2658.52
2846.27
1746.81
2824.68
2607.26
2629.97