/*--------------------------------*- C++ -*----------------------------------*\
| =========                 |                                                 |
| \\      /  F ield         | OpenFOAM: The Open Source CFD Toolbox           |
|  \\    /   O peration     | Version:  v1912                                 |
|   \\  /    A nd           | Website:  www.openfoam.com                      |
|    \\/     M anipulation  |                                                 |
\*---------------------------------------------------------------------------*/
FoamFile
{
    version     2.0;
    format      ascii;
    class       volScalarField;
    location    "10000";
    object      p;
}
// * * * * * * * * * * * * * * * * * * * * * * * * * * * * * * * * * * * * * //

dimensions      [0 2 -2 0 0 0 0];


internalField   nonuniform List<scalar> 
71770
(
251.383
247.839
241.48
229.613
205.808
190.254
176.649
163.906
152.992
147.903
143.729
102.416
252.765
254.265
253.549
253.517
253.529
254.265
254.266
254.266
254.266
254.265
253.549
253.549
253.546
253.548
253.543
253.549
253.549
253.538
253.549
253.549
253.549
253.549
145.888
252.566
252.627
247.566
247.452
247.301
247.104
240.964
240.77
240.522
228.694
241.112
246.851
240.206
228.397
252.704
252.727
252.672
251.289
251.241
247.652
251.175
251.086
250.967
250.811
247.715
241.225
241.309
228.929
229.113
229.256
176.547
252.761
252.758
252.752
251.362
251.371
252.742
251.347
247.791
189.932
176.361
163.608
152.493
251.323
247.76
241.369
205.477
205.668
205.707
205.619
190.173
190.135
205.557
190.018
190.084
176.502
176.441
163.761
163.696
152.636
247.834
241.439
252.765
251.382
251.381
247.836
241.471
241.466
241.456
247.837
241.411
252.765
251.383
251.383
251.383
251.382
251.382
247.839
247.839
247.839
247.838
205.759
190.234
205.776
190.242
176.638
205.788
176.581
176.632
190.221
190.201
176.621
176.605
229.589
229.572
229.545
205.8
205.795
190.247
190.25
229.604
229.598
241.476
241.474
229.609
229.607
205.803
190.252
176.643
229.505
176.645
176.647
247.839
241.48
241.479
241.478
241.477
241.479
229.613
229.611
205.808
205.807
205.807
205.808
229.612
229.612
229.61
205.806
205.807
190.253
205.806
205.805
205.804
190.253
190.253
176.648
176.648
176.647
190.254
190.254
190.254
190.254
190.254
190.254
176.649
176.649
176.649
176.649
163.906
163.906
176.649
176.649
163.906
163.906
163.906
163.906
163.843
163.866
152.877
163.891
152.961
163.897
163.881
152.943
152.916
163.809
152.821
152.973
152.981
147.885
143.689
147.851
147.873
143.659
163.903
163.905
163.905
163.904
163.901
163.906
152.99
152.988
152.985
152.991
152.992
147.893
152.992
152.992
152.992
152.992
152.992
152.992
147.899
147.897
143.72
143.705
143.714
147.901
147.901
147.902
147.903
147.902
147.289
147.466
146.756
147.057
142.354
101.877
147.697
143.033
147.599
142.739
102.028
143.254
102.145
147.768
141.223
141.857
143.61
102.385
102.339
102.367
147.818
143.532
102.295
143.417
102.232
101.683
101.437
101.126
39.7005
39.6078
39.7951
39.9675
39.8855
100.735
102.396
40.174
40.0967
40.1417
40.1954
40.2088
40.0384
143.723
143.725
143.728
143.727
143.726
102.414
102.415
102.402
102.406
102.409
40.2233
40.2174
102.411
102.413
40.228
40.2319
252.763
251.376
252.764
251.379
247.83
247.823
247.811
252.765
252.765
205.737
229.446
229.365
152.743
146.372
140.426
252.765
252.765
40.243
14.0721
13.9151
14.1784
14.2415
14.2386
14.2372
14.2364
14.2355
14.234
14.2481
14.2419
14.2676
14.2573
14.2744
14.2697
14.2327
40.2353
40.2383
40.241
-160.633
-144.151
-129.16
-145.816
-150.777
-144.593
-138.972
-138.346
-145.404
-167.332
-155.18
-185.303
-132.674
-136.964
-141.207
-149.44
-161.756
-155.688
-165.363
-112.863
-102.902
-130.415
-130.924
-136.969
-149.691
-159.393
-156.107
-164.433
-165.091
-110.458
-107.515
-121.188
-127.226
-132.062
-137.826
-154.955
-149.432
-162.524
-159.881
-156.501
-163.873
-166.11
-165.674
-120.181
-134.253
-124.681
-126.929
-147.607
-141.085
-153.163
-149.927
-160.398
-157.912
-162.938
-165.542
-166.641
-165.989
-145.741
-99.5515
-123.879
-122.437
-128.737
-140.532
-134.61
-155.923
-151.606
-162.647
-161.431
-157.567
-162.093
-164.875
-165.436
-166.849
-166.441
-76.0712
-90.9111
-108.132
-117.978
-122.666
-143.688
-136.775
-156.962
-146.755
-154.189
-162.919
-161.085
-158.684
-163.684
-163.762
-166.699
-167.696
-166.959
-77.7432
-96.4516
-109.106
-106.173
-117.469
-107.228
-125.475
-137.841
-132.864
-158.771
-148.86
-152.378
-163.651
-161.623
-159.774
-163.297
-167.276
-166.691
-168.852
-167.651
-62.3156
-47.0418
-97.3055
-110.672
-104.339
-122.409
-138.052
-131.201
-159.098
-151.84
-154.276
-162.622
-160.185
-163.131
-166.106
-168.072
-169.715
-169.985
-169.698
-59.7919
-81.4244
-99.0329
-109.133
-100.847
-124.145
-114.669
-149.056
-142.48
-139.624
-128.672
-159.626
-152.75
-155.327
-165.082
-162.281
-162.515
-165.552
-167.825
-167.975
-168.52
-170.436
-170.745
-38.1093
-92.5678
-59.4844
-91.8002
-99.5549
-95.6572
-121.006
-107.905
-146.967
-142.196
-135.805
-133.767
-159.417
-152.876
-155.486
-165.141
-163.027
-161.64
-166.502
-166.949
-167.517
-169.953
-172.036
-171.755
-29.379
-48.2048
-82.9005
-74.581
-108.539
-85.207
-110.778
-122.876
-148.805
-143.849
-137.074
-126.6
-159.895
-154.805
-157.666
-165.637
-165.017
-163.883
-167.139
-168.956
-169.582
-170.871
-172.886
-173.013
-16.0841
-56.0657
-65.8941
-73.541
-102.964
-83.8716
-113.426
-114.897
-149.805
-144.352
-140.065
-130.13
-154.874
-162.94
-155.895
-165.121
-167.074
-166.712
-165.676
-169.081
-169.262
-171.015
-171.526
-173.845
-174.574
-174.514
-70.5159
-28.6393
-54.9584
-63.837
-108.25
-91.3496
-70.7915
-112.323
-155.796
-148.002
-148.263
-139.322
-130.666
-157.862
-162.073
-155.598
-167.23
-167.762
-164.843
-166.286
-168.722
-169.854
-171.225
-173.53
-172.495
-175.117
-176.201
-30.5518
-56.5563
-50.838
-63.4713
-103.678
-82.2384
-77.2649
-109.598
-117.76
-161.78
-155.507
-152.966
-140.94
-142.92
-128.325
-162.268
-165.881
-152.374
-165.328
-168.215
-165.217
-165.563
-168.75
-168.305
-172.007
-171.595
-173.506
-175.927
-176.381
-176.936
-20.2113
-40.513
-37.2741
-47.9122
-55.0228
-94.8375
-58.7436
-107.577
-117.709
-151.833
-151.786
-139.664
-143.576
-139.175
-160.551
-164.678
-154.92
-168.052
-170.606
-168.016
-169.228
-172.483
-172.782
-175.096
-173.414
-175.473
-176.443
-178.329
-178.548
-11.8833
11.1465
-33.2898
-43.4181
-59.3772
-98.4017
-64.3588
-113.576
-98.3858
-117.811
-156.092
-160.148
-159.636
-149.246
-140.952
-140.468
-138.266
-161.69
-161.352
-157.045
-169.995
-169.984
-169.55
-172.789
-172.504
-174.843
-173.792
-176.563
-177.261
-177.709
-179.303
-180.601
0.999404
-12.4028
-7.51209
-23.8487
-35.7693
-55.3309
-78.0298
-61.0724
-110.541
-98.672
-127.75
-147.517
-157.568
-150.072
-151.391
-145.624
-145.378
-163.021
-168.149
-165.045
-165.375
-161.722
-171.826
-169.605
-164.907
-173.674
-176.741
-174.487
-175.028
-177.708
-177.248
-177.426
-178.716
-177.785
16.4802
25.7459
33.2424
-15.2934
-38.8179
-33.9892
-80.5567
-61.6966
-38.5482
-106.806
-114.056
-88.5026
-129.973
-136.821
-151.022
-150.631
-145.5
-153.058
-144.635
-163.499
-163.236
-171.715
-170.32
-166.021
-168.114
-171.592
-171.902
-173.054
-173.681
-173.814
-176.773
-177.378
-178.188
-181.502
-178.974
-182.543
3.12199
32.6649
13.9657
3.66126
-13.6647
-22.0086
-46.7606
-70.9236
-58.5671
-63.5678
-107.566
-122.25
-84.4444
-129.109
-143.195
-161.956
-152.057
-146.326
-147.625
-141.278
-153.581
-165.86
-171.03
-171.847
-169.709
-171.448
-174.368
-173.705
-177.578
-177.442
-179.897
-181.066
-179.576
-181.711
-181.812
-182.856
50.665
23.0762
32.9739
11.947
2.55414
-5.90766
-43.7956
-78.8732
-59.8428
-52.332
-90.52
-116.125
-120.126
-138.756
-140.842
-158.945
-160.783
-149.018
-156.302
-140.082
-155.407
-168.264
-169.574
-168.604
-172.908
-170.19
-172.861
-175.474
-177.94
-179.27
-180.266
-178.863
-180.712
-182.985
-183.963
-183.638
54.9224
12.4807
11.7271
59.7303
1.41632
-7.41588
-28.2008
-20.7065
-79.5994
-53.6428
-79.6036
-52.9243
-103.233
-95.9817
-128.7
-135.352
-137.093
-170.277
-165.72
-148.629
-158.944
-152.179
-173.407
-173.288
-171.411
-174.223
-173.194
-170.095
-174.868
-174.741
-173.356
-174.8
-177.194
-177.835
-179.657
-182.431
-181.813
-182.163
-183.956
-184.882
8.1805
28.0722
21.4753
53.0285
26.0981
-0.175344
-26.6188
-22.4479
-81.0488
-69.1098
-73.3185
-44.4995
-102.884
-104.407
-129.894
-131.269
-141.465
-139.174
-158.804
-147.248
-160.519
-152.067
-155.107
-170.359
-171.443
-172.705
-175.35
-174.129
-177.484
-177.45
-179.486
-179.827
-181.963
-179.018
-181.509
-181.945
-182.591
-184.567
-185.889
-185.605
41.3799
12.5403
24.9252
68.0426
13.8645
20.1712
-12.5773
-40.8392
-93.1293
-73.9932
-83.8329
-47.7365
-97.1523
-121.594
-128.244
-132.616
-148.537
-141.547
-161.667
-156.756
-161.128
-166.415
-153.036
-158.675
-171.96
-172.317
-172.513
-174.541
-175.042
-174.776
-179.261
-179.596
-180.059
-181.339
-181.623
-183.527
-185.101
-185.715
-186.735
-186.857
8.16723
53.1869
34.6946
23.6546
3.17289
-15.8882
-31.8638
-91.4994
-60.6794
-84.5583
-80.3356
-37.7043
-115.407
-117.315
-126.289
-142.926
-143.084
-148.212
-168.209
-157.021
-164.781
-157.023
-172.319
-176.594
-174.685
-175.574
-174.395
-175.258
-175.291
-176.025
-179.494
-179.47
-182.222
-183.21
-184.966
-184.902
-185.842
-185.321
-186.916
-188.408
55.3933
55.3944
26.1072
40.6559
24.0657
2.18658
13.4047
-8.30947
-35.0672
-106.942
-61.3501
-82.5179
-84.7661
-47.86
-98.6506
-126.968
-127.245
-155.255
-149.491
-160.274
-169.845
-151.204
-166.388
-159.833
-170.143
-176.734
-178.582
-168.65
-174.659
-175.577
-176.775
-179.582
-180.346
-180.272
-183.364
-184.777
-185.007
-189.204
-188.995
-189.6
26.0886
56.1258
68.9227
30.3375
16.033
8.94179
-12.1447
-10.9105
-45.2978
-105.213
-69.0974
-89.2175
-83.9555
-74.0595
-112.578
-122.467
-128.643
-144.182
-139.062
-158.189
-154.17
-164.848
-168.561
-169.469
-171.752
-172.398
-170.465
-173.708
-174.165
-176.088
-179.153
-179.208
-182.972
-182.102
-184.212
-184.434
-184.444
-186.669
-188.948
-185.483
-186.487
-189.428
-190.926
60.5166
34.7933
64.5633
82.3932
55.8043
43.8584
67.0347
16.5677
-1.87511
-19.3527
-30.7987
-111.348
-65.2965
-86.6129
-87.537
-76.8009
-114.692
-126.788
-133.334
-128.416
-146.525
-145.338
-172.305
-173.331
-171.203
-171.995
-171.954
-176.297
-179.576
-174.546
-175.783
-179.954
-177.348
-181.723
-183.399
-180.287
-184.914
-183.684
-185.557
-186.206
-186.927
-187.518
-191.489
-191.86
-191.61
63.4182
34.7045
44.8201
43.399
8.26444
11.2536
-11.7051
-26.2724
-48.456
-31.5501
-115.573
-75.1648
-98.496
-116.613
-80.2043
-118.388
-122.095
-134.262
-143.143
-147.371
-153.789
-167.407
-148.844
-162.356
-155.844
-166.121
-170.226
-168.473
-177.596
-177.228
-179.908
-176.926
-179.223
-180.49
-181.014
-183.951
-182.314
-186.232
-188.481
-185.104
-190.755
-189.221
-190.272
-191.525
-192.936
83.319
112.141
66.7363
96.5837
29.113
19.9822
12.7278
10.509
-20.3257
-50.7658
-50.9938
-101.14
-78.1972
-102.473
-112.889
-77.53
-121.37
-122.386
-127.388
-142.596
-154.31
-151.431
-151.074
-170.063
-171.514
-160.923
-170.377
-182.427
-173.142
-176.579
-175.268
-181.622
-176.27
-177.748
-179.619
-183.065
-185.013
-184.736
-187.069
-185.517
-188.933
-187.272
-190.892
-194.011
-192.895
-194.999
64.6612
70.4387
55.0462
54.0772
66.5997
-13.9212
-10.428
-24.241
-54.6267
-63.4321
-113.451
-81.3217
-110.327
-112.466
-88.9574
-120.841
-141.994
-136.075
-138.5
-137.355
-148.451
-153.16
-154.104
-168.784
-173.712
-178.219
-170.395
-182.815
-177.377
-177.878
-183.761
-179.35
-179.418
-183.222
-183.037
-185.168
-184.787
-187.966
-189.743
-190.634
-188.381
-192.405
-192.78
-194.573
-195.748
-195.278
60.8252
69.3002
34.1373
37.6697
71.5603
35.8668
-23.8432
-29.9655
14.454
-8.32909
-56.9209
-70.303
-120.286
-86.1647
-111.738
-109.748
-87.5604
-138.748
-119.455
-139.864
-134.594
-146.185
-141.279
-152.693
-145.863
-160.922
-147.825
-161.323
-167.642
-182.295
-166.578
-177.71
-170.534
-182.991
-178.28
-176.597
-183.127
-181.777
-186.846
-184.926
-187.613
-187.967
-191.756
-192.544
-192.253
-192.592
-194.234
-193.697
-195.2
-196.486
40.3811
61.9335
71.4822
68.7747
30.527
44.4104
38.5266
-38.9101
-39.5119
1.54475
-17.5506
-71.41
-49.1672
-76.5985
-91.4487
-117.163
-114.318
-94.3512
-133.962
-130.449
-147.76
-142.37
-148.476
-166.222
-150.54
-163.117
-166.549
-166.265
-176.196
-177.373
-181.806
-173.006
-185.506
-179.115
-178.081
-181.855
-182.846
-187.021
-188.211
-190.368
-188.454
-190.732
-187.837
-194.66
-194.455
-194.516
-197.563
-196.815
-198.723
49.8513
72.9454
45.9362
101.023
22.3274
48.1283
56.1371
24.2178
-44.6578
5.06055
-8.09972
-33.0198
-74.9041
-69.813
-87.4615
-103.92
-115.989
-119.682
-134.076
-93.4309
-101.475
-140.654
-135.586
-150.8
-146.846
-151.958
-164.228
-173.72
-176.683
-166.22
-175.725
-174.348
-182.366
-175.48
-173.693
-180.288
-173.459
-181.301
-183.162
-183.678
-186.342
-186.878
-193.084
-188.997
-192.179
-186.422
-191.617
-193.813
-196.078
-196.041
-198.465
-200.117
-199.83
148.402
70.776
69.9432
52.1726
59.1086
38.4858
25.307
-54.8473
-1.90886
-21.1499
-38.3261
-83.0473
-68.1605
-90.5329
-106.052
-123.962
-125.769
-133.704
-102.331
-111.751
-139.2
-142.647
-150.832
-155.95
-155.291
-147.309
-165.871
-176.036
-168.139
-178.529
-173.237
-178.053
-179.863
-178.518
-183.06
-179.584
-190.857
-182.745
-184.106
-195.579
-193.65
-192.029
-193.829
-198.038
-197.716
-199.77
-197.957
-200.664
-202.036
-188.868
64.6988
76.1147
38.8775
69.7855
24.2821
7.48881
-56.894
-9.72657
-33.9118
-17.9336
-52.5641
-90.694
-78.7506
-99.0154
-116.032
-123.474
-128.822
-140.713
-104.174
-110.468
-117.098
-150.732
-142.044
-157.829
-159.71
-164.037
-155.336
-173.675
-172.353
-171.605
-188.134
-179.053
-179.772
-172.959
-179.105
-179.935
-180.921
-183.699
-183.93
-185.578
-191.791
-185.604
-185.115
-190.276
-194.129
-193.189
-197.598
-196.892
-199.49
-196.978
-201.196
-198.498
-188.778
48.1778
77.0372
46.6918
85.1364
40.53
41.1092
2.72861
-69.7787
-15.7225
-39.6043
-33.0148
-61.4965
-90.2099
-100.571
-77.4154
-105.279
-130.234
-134.575
-141.425
-114.001
-116.452
-127.561
-153.318
-149.112
-161.316
-162.084
-161.148
-168.276
-171.392
-178.566
-169.337
-176.35
-176.272
-185.523
-189.526
-178.431
-180.546
-183.936
-185.478
-186.199
-192.485
-195.911
-191.741
-188.094
-193.766
-194.756
-195.737
-197.724
-199.413
-199.765
-199.097
-204.307
58.724
65.3805
73.974
45.1772
53.8666
22.0674
8.56713
-8.04235
-77.7377
-25.722
-53.5363
-34.5924
-73.349
-95.072
-114.212
-89.5902
-116.866
-135.579
-144.288
-120.171
-124.184
-131.871
-162.636
-155.032
-162.112
-163.633
-162.971
-177.153
-182.478
-177.81
-172.965
-179.051
-188.292
-182.462
-190.481
-181.264
-174.907
-182.632
-182.275
-188.248
-187.129
-186.769
-193.307
-187.801
-194.68
-195.286
-198.091
-197.801
-199.291
-199.817
-202.005
-203.01
-204.715
62.0045
84.2206
69.8749
63.6874
63.4401
27.8867
15.6331
-7.29224
-14.1131
-88.1363
-27.1159
-60.5595
-44.1982
-75.6148
-102.871
-112.677
-119.262
-142.351
-149.719
-126.097
-130.899
-141.01
-162.893
-155.988
-175.37
-169.925
-170.737
-186.583
-182.641
-174.618
-169.223
-194.152
-177.55
-172.498
-182.119
-191.071
-181.836
-187.864
-191.184
-189.245
-186.033
-195.588
-197.223
-196.988
-195.42
-197.209
-198.597
-198.776
-198.058
-204.891
-203.168
-204.696
-205.895
-205.752
54.1479
64.457
41.8917
55.0315
33.9351
12.7603
-10.7071
-96.7656
-36.0158
-70.347
-54.2706
-47.2051
-85.9007
-106.502
-123.033
-125.536
-148.478
-158.572
-133.239
-139.681
-151.788
-147.792
-168.788
-158.83
-178.079
-167.234
-173.589
-177.844
-166.706
-182.859
-184.283
-191.251
-196.426
-182.325
-186.62
-169.804
-195.186
-183.528
-184.616
-192.104
-182.801
-189.499
-191.926
-194.666
-196.563
-187.554
-196.597
-200.68
-199.408
-198.67
-203.612
-201.649
-204.377
-207.012
-206.939
74.0882
41.7922
58.4819
50.4666
40.5698
28.9174
23.736
42.6658
-2.57704
-20.8937
-101.761
-32.7502
-76.5702
-72.506
-56.527
-98.6724
-93.9518
-117.504
-129.373
-124.747
-135.573
-157.936
-141.85
-139.685
-149.287
-164.054
-159.961
-170.711
-164.59
-182.18
-174.202
-177.026
-178.7
-177.198
-188.473
-190.577
-182.779
-187.848
-186.478
-193.893
-184.926
-191.208
-184.924
-190.112
-189.282
-191.789
-192.565
-196.741
-195.568
-187.09
-198.785
-198.826
-199.015
-203.457
-202.617
-201.721
-205.781
-205.929
-207.008
-208.64
37.8039
45.6215
58.5769
66.742
57.4501
32.0732
9.00638
27.2846
-4.93297
-23.0716
-113.736
-44.8426
-88.5694
-74.4878
-68.0153
-55.0282
-102.327
-120.344
-141.244
-135.314
-149.943
-162.962
-144.024
-154.504
-166.085
-166.811
-178.141
-172.608
-183.974
-186.082
-183.165
-183.363
-191.584
-190.252
-192.781
-171.829
-185.458
-192.982
-189.518
-185.514
-184.924
-188.998
-201.148
-192.598
-190.436
-189.51
-192.133
-195.869
-195.182
-195.936
-196.75
-201.361
-200.654
-199.156
-202.156
-204.873
-205.437
-206.086
-209.351
-209.043
-208.596
34.7834
32.7857
60.0601
69.1931
49.0009
55.0501
24.1133
14.7148
1.10418
-12.4294
-34.5751
-116.856
-45.3123
-92.2434
-88.2316
-76.4957
-68.4662
-108.795
-130.27
-142.86
-150.201
-137.177
-154.886
-168.95
-150.236
-161.849
-170.267
-173.988
-179.263
-183.986
-172.177
-185.622
-190.052
-187.629
-186.51
-195.017
-182.321
-180.797
-187.561
-187.822
-191.825
-197.648
-199.891
-187.106
-192.82
-188.302
-196.089
-193.055
-198.652
-197.57
-196.236
-198.527
-201.574
-201.139
-198.661
-205.101
-202.979
-203.113
-204.914
-208.416
-205.208
-207.086
-209.932
-214.761
38.6896
41.4057
45.0105
39.2904
60.7284
40.1574
22.553
-2.38609
-14.3097
-34.2743
-124.282
-56.7704
-100.642
-91.8161
-87.3986
-68.455
-110.845
-131.999
-152.492
-157.724
-147.577
-163.737
-167.677
-177.936
-181.194
-183.739
-188.525
-188.563
-182.575
-187.441
-196.326
-192.7
-191.885
-177.509
-188.787
-183.71
-183.943
-187.974
-194.076
-202.37
-205.266
-194.672
-190.885
-192.938
-198.039
-189.495
-201.439
-199.771
-201.792
-201.788
-205.933
-203.012
-206.287
-209.841
-205.612
-208.118
-209.924
-212.115
-211.129
35.0436
17.842
51.4869
48.8613
35.6939
58.3065
18.2784
9.75301
-0.189229
-23.0161
-43.356
-126.721
-57.0208
-108.48
-103.381
-89.0753
-78.312
-120.488
-142.29
-154.561
-159.199
-166.308
-150.335
-176.581
-185.553
-185.703
-190.171
-191.798
-189.813
-191.037
-195.663
-199.063
-193.557
-192.069
-194.856
-199.885
-190.434
-195.459
-201.17
-200.508
-202.455
-199.502
-183.837
-185.301
-204.091
-191.627
-193.92
-197.176
-190.919
-196.246
-200.557
-203.818
-207.131
-206.107
-208.437
-208.498
-208.681
-210.242
-213.435
-213.986
30.0834
32.5248
59.453
35.012
55.048
24.1585
6.7321
-9.47704
-21.0113
-43.1118
-136.611
-65.5082
-118.134
-114.424
-100.436
-78.8119
-123.399
-145.334
-163.745
-169.634
-177.226
-159.381
-180.741
-194.31
-193.246
-195.3
-200.218
-194.263
-198.732
-194.173
-197.737
-210.754
-201.297
-199.849
-198.734
-196.521
-190.364
-199.448
-201.753
-196.845
-195.008
-187.996
-186.384
-194.215
-191.6
-196.817
-198.038
-202.698
-203.308
-206.742
-206.277
-206.028
-207.348
-205.642
-208.86
-209.705
-210.027
-214.017
-214.028
-215.544
11.6456
33.6191
55.2172
33.9333
50.9774
49.66
12.6238
1.02628
-9.24458
-32.9
-52.8967
-143.353
-63.7841
-121.163
-113.01
-104.055
-84.7467
-131.522
-153.628
-172.554
-165.859
-180.082
-160.083
-189.698
-201.283
-197.218
-205.656
-208.606
-199.983
-204.13
-210.986
-212.639
-205.602
-205.907
-217.892
-210.368
-210.791
-208.999
-200.321
-203.411
-203.926
-195.166
-203.387
-191.205
-194.718
-191.894
-204.404
-205.326
-193.561
-200.373
-201.223
-203.719
-206.738
-205.644
-206.472
-207.693
-210.454
-211.747
-209.75
-213.173
-215.833
-217.392
-217.095
17.3488
-7.07302
42.8899
2.7633
44.8697
20.5118
0.0955338
-14.869
-33.5116
-54.6943
-138.564
-154.011
-72.4909
-130.814
-127.516
-95.5128
-112.649
-82.7774
-137.075
-183.984
-175.599
-184.605
-170.558
-201.261
-207.159
-206.739
-216.358
-219.106
-211.634
-211.524
-214.818
-211.866
-219.183
-214.672
-208.396
-213.266
-218.655
-206.075
-200.725
-204.363
-201.573
-202.654
-198.383
-208.634
-199.524
-198.021
-199.764
-198.597
-204.115
-202.203
-201.66
-202.657
-207.593
-207.984
-210.215
-213.85
-215.568
-218.3
-218.91
24.4118
65.7613
26.4906
23.5393
35.0835
42.8647
7.04428
-10.6892
-23.196
-39.0649
-64.8516
-46.2369
-152.219
-157.264
-72.6003
-134.273
-129.133
-104.366
-120.413
-112.828
-88.912
-147.88
-186.114
-179.591
-194.227
-176.486
-215.106
-201.574
-217.36
-212.484
-221.298
-223.768
-215.939
-220.063
-218.666
-224.682
-208.339
-215.758
-218.177
-192.656
-210.6
-209.885
-207.454
-198.615
-203.567
-207.617
-204.061
-193.709
-194.948
-204.953
-204.44
-198.902
-203.697
-202.645
-206.466
-208.076
-211.758
-213.756
-215.633
-219.415
-218.839
-220.55
16.3827
33.4971
67.4585
47.117
0.0263414
-13.0243
-27.4741
-38.5576
-66.2412
-57.046
-154.361
-168.715
-85.3756
-143.872
-141.287
-101.566
-126.539
-123.586
-149.555
-194.012
-189.393
-201.21
-188.901
-221.504
-216.123
-226.195
-222.471
-233.248
-235.122
-220.915
-226.519
-223.838
-214.866
-198.64
-209.901
-219.513
-220.62
-223.994
-205.747
-201.238
-209.66
-209.79
-199.347
-203.23
-201.757
-198.236
-202.278
-202.466
-209.217
-206.629
-209.038
-207.363
-207.494
-210
-209.221
-213.85
-213.273
-215.961
-218.932
-220.009
-221.117
-221.247
-221.885
16.6626
6.09343
87.8647
84.8455
36.4024
-7.64411
1.35242
-20.3897
-40.1486
-71.9496
-54.8946
-164.417
-173.115
-88.1159
-146.543
-144.336
-109.009
-135.505
-127.047
-160.393
-194.617
-214.898
-190.221
-230.81
-221.504
-235.238
-230.44
-242.888
-240.164
-227.868
-235.504
-227.071
-217.426
-215.468
-223.597
-229.38
-226.431
-229.638
-216.551
-202.661
-204.272
-198.793
-200.887
-205.515
-201.212
-201.591
-200.397
-203.258
-206.776
-205.253
-205.212
-207.631
-199.248
-207.635
-213.81
-210.963
-212.501
-217.427
-220.641
-216.807
-217.797
-221.721
-223.734
6.81218
20.5417
28.5146
29.735
55.1024
-12.5997
-1.48554
-23.4431
-45.6078
-31.4835
-81.0125
-72.1922
-63.6648
-167.973
-186.189
-97.6137
-162.328
-151.789
-108.732
-122.532
-139.999
-135.974
-167.567
-205.441
-218.462
-202.178
-231.491
-240.431
-240.967
-240.143
-256.167
-253.727
-236.364
-240.855
-235.227
-215.136
-222.267
-220.568
-232.506
-229.18
-229.056
-239.268
-203.667
-204.124
-205.07
-214.991
-204.82
-208.459
-207.68
-202.713
-205.981
-211.154
-213.353
-202.214
-208.065
-210.228
-218.902
-216.492
-221.196
-219.281
-224.371
-225.157
-224.69
11.2198
39.2643
10.8401
27.3406
29.8893
25.4451
37.3713
47.4479
-8.64693
-19.0804
0.511314
-45.9033
-33.6953
-89.743
-79.5847
-63.9398
-179.341
-189.141
-101.974
-167.418
-149.736
-162.067
-116.203
-129.935
-135.62
-178.926
-211.364
-234.511
-217.369
-242.032
-251.773
-252.146
-247.713
-267.155
-261.06
-259.349
-245.817
-248.222
-239.477
-220.514
-226.93
-214.777
-241.661
-235.108
-228.335
-218.766
-211.961
-205.928
-218.676
-204.213
-215.632
-208.278
-206.396
-213.99
-204.963
-213.063
-208.723
-215.412
-213.547
-213.573
-216.056
-220.237
-221.231
-223.478
-222.868
-225.01
-226.587
11.7879
3.23919
21.2331
21.9485
36.6567
36.1266
40.8304
-16.907
-21.646
-4.96358
-51.1609
-39.1548
-28.0177
-97.6559
-88.1388
-78.4337
-57.6866
-72.1316
-195.913
-112.564
-179.207
-156.549
-163.426
-126.349
-143.71
-182.751
-223.961
-237.496
-244.003
-218.901
-230.303
-253.089
-265.017
-259.848
-256.321
-284.303
-275.446
-270.317
-252.229
-255.155
-247.21
-229.579
-227.33
-219.036
-215.434
-246.01
-238.751
-235.343
-236.331
-223.587
-205.651
-209.9
-206.08
-208.684
-211.967
-209.649
-208.927
-206.854
-220.452
-209.577
-213.543
-207.115
-218.709
-210.948
-215.357
-216.549
-219.384
-220.078
-218.534
-220.756
-223.39
-227.24
-228.247
-227.916
7.34417
6.42994
20.6774
32.222
29.4502
-17.7321
-7.87412
-49.3314
-38.9614
-30.277
-99.9075
-94.9013
-92.244
-64.4866
-74.843
-193.879
-208.614
-114.414
-183.042
-155.056
-174.476
-126.661
-148.105
-232.755
-252.73
-258.366
-224.736
-238.361
-262.567
-279.846
-271.215
-263.877
-287.473
-296.008
-278.658
-276.668
-261.842
-254.321
-266.15
-218.215
-232.336
-214.508
-249.021
-242.49
-242.329
-231.752
-220.923
-218.19
-213.791
-210.18
-209.146
-211.66
-212.094
-210.331
-209.495
-209.247
-207.789
-211.834
-213.481
-209.931
-218.48
-219.128
-217.753
-219.926
-220.066
-223.022
-224.848
-225.276
-227.425
-229.843
16.4702
14.7573
23.9973
18.2909
36.1979
-13.513
-25.9805
-6.5981
-42.4903
-52.8601
-105.828
-92.6653
-70.6567
-60.3809
-83.513
-206.842
-215.271
-121.016
-194.786
-161.009
-179.829
-133.442
-144.434
-158.497
-243.216
-268.394
-254.172
-269.546
-224.773
-230.913
-246.021
-277.312
-294.339
-278.029
-273.598
-300.516
-307.388
-292.147
-291.478
-268.277
-261.685
-267.039
-230.695
-236.388
-227.541
-215.929
-247.225
-255.356
-242.939
-239.533
-215.659
-221.707
-217.569
-209.22
-209.68
-210.152
-209.535
-213.979
-218.727
-210.989
-211.187
-216.03
-217.167
-222.928
-220.979
-225.864
-224.714
-225.211
-227.592
-229.995
-231.673
-230.885
11.0508
0.700131
31.8208
13.3454
30.7456
30.7749
-20.0512
-28.8817
-10.5046
-37.1928
-50.0613
-109.253
-97.6348
-73.3301
-69.4368
-83.6735
-205.757
-124.057
-194.252
-172.757
-141.558
-146.909
-163.926
-279.838
-277.65
-289.021
-231.153
-246.917
-262.243
-291.531
-295.665
-288.227
-282.83
-303.516
-310.528
-320.609
-298.954
-294.884
-279.626
-262.658
-272.446
-236.998
-227.87
-236.141
-210.931
-253.06
-261.557
-246.344
-240.284
-206.73
-210.117
-213.087
-211.05
-212.617
-213.441
-223.572
-220.797
-213.598
-215.791
-210.251
-218.18
-221.749
-221.184
-219.563
-223.286
-227.982
-227.173
-229.048
-231.33
-233.141
-6.67527
-2.07269
26.9274
18.5466
15.7692
33.6536
-25.9215
-16.5463
-7.62974
-42.5072
-53.4631
-116.928
-104.551
-99.8618
-80.6427
-68.8914
-91.2455
-212.869
-128.98
-198.483
-179.058
-137.19
-152.687
-174.964
-160.836
-292.344
-278.601
-297.924
-242.915
-224.142
-262.625
-266.856
-310.655
-288.369
-314.666
-326.298
-336.809
-325.306
-312.813
-308.863
-283.613
-268.802
-273.897
-281.392
-233.905
-235.518
-220.569
-226.813
-227.1
-217.016
-260.637
-251.431
-265.93
-237.246
-216.047
-217.669
-215.146
-215.398
-211.12
-222.749
-227.202
-217.308
-224.187
-212.963
-215.142
-216.26
-223.299
-217.662
-226.019
-223.123
-225.829
-229.523
-234.952
-234.171
-234.353
-3.09935
24.0064
11.4222
-2.57498
29.9221
-27.9454
-21.3806
-13.2675
-39.1793
-59.6837
-50.5359
-123.019
-113.321
-101.68
-81.8708
-73.2711
-97.13
-210.167
-129.704
-194.309
-144.477
-153.592
-179.075
-172.111
-303.635
-283.965
-319.207
-246.767
-261.177
-237.296
-280.447
-281.818
-324.837
-299.968
-325.894
-337.734
-342.176
-338.142
-314.351
-311.711
-292.663
-281.389
-285.003
-246.623
-239.739
-240.207
-237.953
-233.613
-225.534
-263.595
-248.9
-276.276
-257.715
-225.274
-220.428
-221.386
-219.911
-216.113
-222.246
-237.302
-218.835
-227.926
-218.497
-217.885
-223.989
-226.78
-229.482
-224.802
-231.79
-230.945
-233.31
-230.607
-234.312
-236.63
-1.32822
14.1472
-0.0804519
16.439
31.9653
31.0088
-31.6305
-18.9011
-9.34455
-43.8865
-63.3231
-54.4765
-119.709
-111.764
-105.554
-77.3553
-93.8993
-70.1619
-222.738
-136.741
-199.645
-142.833
-160.08
-192.63
-176.148
-298.338
-320.506
-328.683
-258.738
-264.715
-235.718
-283.48
-335.212
-305.952
-338.858
-348.965
-358.517
-327.584
-318.563
-302.611
-299.73
-281.799
-293.829
-251.085
-255.093
-239.753
-234.968
-240.478
-228.537
-262.077
-269.274
-274.408
-213.571
-219.602
-218.559
-225.282
-223.691
-219.147
-219.628
-216.901
-218.077
-229.297
-217.266
-227.1
-223.402
-227.232
-233.826
-230.34
-228.742
-231.194
-237.162
-238.116
-237.926
10.0448
1.84942
30.741
25.8075
31.192
-29.8905
-22.9342
-10.1989
-40.4389
-59.9374
-51.2395
-126.831
-116.453
-105.207
-77.9606
-95.9029
-72.9651
-221.906
-134.783
-209.803
-150.692
-157.594
-171.352
-197.993
-190.027
-315.766
-337.873
-348.502
-268.662
-272.868
-246.286
-296.831
-350.008
-317.471
-351.399
-340.71
-360.087
-367.925
-373.371
-336.446
-330.464
-309.879
-306.18
-289.014
-293.483
-245.281
-253.281
-254.091
-235.718
-238.418
-245.997
-225.478
-264.038
-265.714
-281.739
-218.202
-224.93
-230.756
-226.376
-227.74
-227.701
-231.593
-227.121
-224.729
-222.826
-225.228
-228.751
-225.293
-231.909
-235.754
-233.436
-234.884
-238.394
-240.123
0.370512
26.9209
-4.51016
15.7239
9.90071
32.7295
-34.2188
-21.7136
-16.1874
-7.60291
-44.3151
-61.6203
-56.9631
-123.63
-114.569
-106.909
-83.3019
-90.808
-68.7382
-242.08
-143.349
-207.989
-151.031
-164.523
-172.293
-190.292
-313.183
-335.013
-350.685
-359.77
-285.547
-261.034
-285.898
-311.721
-370.13
-324.271
-367.618
-351.113
-373.834
-379.975
-379.286
-349.379
-339.045
-319.495
-312.121
-285.614
-299.866
-256.26
-257.787
-251.539
-245.242
-243.752
-240.507
-227.742
-261.617
-271.693
-281.809
-223.293
-226.726
-228.138
-226.58
-224.403
-224.055
-220.159
-222.937
-227.485
-226.132
-227.142
-231.058
-235.043
-234.987
-235.937
-240.948
-239.396
-241.624
3.27012
15.2807
-1.09029
23.0399
13.1711
12.8287
28.5714
-31.5965
-25.8594
-18.749
-10.0035
-42.9797
-56.4473
-131.096
-117.258
-100.579
-84.7745
-94.7498
-71.4701
-244.642
-141.761
-215.426
-160.447
-183.6
-201.056
-334.445
-342.905
-371.45
-379.874
-282.154
-293.673
-273.905
-306.919
-334.126
-384.063
-336.053
-375.827
-365.886
-384.208
-394.103
-355.3
-350.074
-325.838
-322.163
-309.549
-295.368
-297.308
-249.132
-261.505
-248.332
-251.497
-231.341
-235.521
-249.474
-238.525
-231.673
-265.218
-275.04
-281.149
-222.966
-233.549
-227.842
-223.17
-233.982
-223.754
-225.381
-227.407
-229.935
-232.019
-235.556
-232.351
-238.205
-238.271
-241.346
-243.155
-243.029
-1.43674
10.7982
-2.78605
26.7394
15.3132
10.6547
-35.8207
-24.0527
-14.629
-7.52772
-46.3376
-51.0274
-61.1986
-130.305
-123.316
-110.588
-103.342
-78.137
-92.6533
-67.8486
-265.915
-234.581
-149.623
-215.979
-156.057
-183.173
-212.452
-341.839
-364.978
-385.144
-380.32
-296.221
-305.884
-339.342
-401.372
-334.986
-388.832
-382.476
-401.264
-408.626
-407.275
-374.548
-350.545
-326.558
-314.345
-295.165
-309.717
-257.67
-262.531
-248.823
-246.567
-238.186
-234.975
-245.338
-243.061
-232.738
-272.776
-278.589
-287.943
-223.509
-227.629
-233.895
-227.395
-233.902
-226.294
-225.641
-228.269
-233.412
-232.893
-238.875
-232.587
-234.625
-238.83
-240.561
-243.326
-245.351
3.73947
7.6288
-1.04325
21.9077
16.9563
13.8864
10.7291
-34.3943
-24.6187
-19.0072
-11.0708
-44.2895
-52.7482
-61.9432
-133.811
-125.572
-120.001