/*--------------------------------*- C++ -*----------------------------------*\
| =========                 |                                                 |
| \\      /  F ield         | OpenFOAM: The Open Source CFD Toolbox           |
|  \\    /   O peration     | Version:  v1912                                 |
|   \\  /    A nd           | Website:  www.openfoam.com                      |
|    \\/     M anipulation  |                                                 |
\*---------------------------------------------------------------------------*/
FoamFile
{
    version     2.0;
    format      ascii;
    class       surfaceScalarField;
    location    "10000";
    object      phi;
}
// * * * * * * * * * * * * * * * * * * * * * * * * * * * * * * * * * * * * * //

dimensions      [0 3 -1 0 0 0 0];
oriented        oriented;


internalField   nonuniform List<scalar> 
118861
(
3.77011e-10
3.93078e-10
4.23202e-10
4.5681e-10
4.71243e-10
4.74898e-10
4.78911e-10
4.78077e-10
4.71743e-10
4.95925e-10
5.80367e-10
-3.68603e-10
3.68518e-10
-3.66047e-10
-6.28262e-09
9.8845e-11
-3.93467e-10
2.10325e-10
-3.6908e-11
7.7225e-12
1.41482e-09
2.47164e-12
-1.4885e-09
2.19933e-09
-9.84399e-10
-6.33598e-10
3.93892e-10
-4.53288e-09
3.18731e-09
3.09779e-09
1.19169e-11
5.73237e-09
3.24781e-11
9.7787e-09
7.02321e-11
1.59067e-08
-2.35345e-10
1.33989e-10
2.44189e-09
-5.95554e-08
-7.17312e-08
-8.55067e-08
9.98689e-07
1.26222e-06
-1.41115e-07
1.58653e-06
-1.69826e-07
1.61918e-06
7.84733e-07
1.15861e-07
-1.01292e-07
1.98516e-06
-2.02479e-07
2.02244e-06
-2.86689e-07
4.5817e-07
3.45363e-07
2.86336e-09
2.75814e-09
-2.93009e-09
4.58237e-07
5.9756e-07
-1.86271e-08
6.01544e-07
4.87461e-08
7.69588e-07
-7.73924e-07
-2.26089e-08
9.81706e-07
-9.86516e-07
-2.69439e-08
-1.24844e-06
-3.17535e-08
-1.57074e-06
-3.73037e-08
4.61894e-07
3.91801e-08
6.11111e-07
9.37478e-08
4.70271e-07
7.45403e-08
1.29093e-06
2.364e-07
1.02394e-06
1.9273e-07
8.0685e-07
1.55019e-07
8.72132e-08
1.27866e-07
-1.20511e-09
1.82998e-07
-1.65736e-09
1.83481e-07
1.28314e-07
6.39309e-09
2.54734e-07
2.57286e-09
-2.13996e-09
2.55167e-07
-8.80418e-09
2.58048e-07
2.69917e-06
2.74431e-06
2.78071e-06
-2.8031e-06
3.45649e-07
1.49701e-08
-1.16824e-08
3.48946e-07
3.08027e-08
-2.35978e-08
3.56158e-07
5.80646e-08
-2.64589e-06
1.3346e-06
1.06165e-06
1.47956e-07
1.66947e-06
-1.87567e-07
1.09497e-06
1.37421e-06
-1.40505e-06
-9.34584e-08
2.08022e-06
2.87837e-07
-2.33985e-07
2.13407e-06
2.07005e-07
1.71589e-06
1.61927e-07
-1.24297e-07
1.75352e-06
-9.02543e-08
2.17915e-06
1.57715e-07
-1.20431e-07
1.78369e-06
2.21643e-06
1.0582e-07
-7.68461e-08
2.2454e-06
3.2352e-08
9.71494e-09
-1.27018e-09
3.94051e-08
3.8377e-09
6.17577e-08
-1.10055e-08
2.34484e-08
-1.6317e-08
2.55633e-08
2.42512e-09
2.64109e-07
4.41607e-08
-3.2676e-08
5.69461e-09
6.98977e-11
3.83614e-11
-8.40788e-12
5.73144e-09
-1.06629e-10
9.77551e-09
-2.38385e-10
7.75881e-10
-4.44404e-10
3.166e-09
5.85522e-09
-2.10279e-10
9.98153e-09
-4.37467e-10
1.62237e-08
1.46454e-09
-8.35018e-10
6.49008e-08
-5.27008e-07
2.41608e-08
4.09996e-07
4.73251e-08
-4.02183e-07
1.11965e-06
6.64331e-08
5.37799e-07
-1.71706e-08
6.79818e-07
-3.49517e-08
6.87786e-08
-4.95438e-08
6.9441e-07
-2.44217e-08
8.8586e-07
4.8135e-08
-3.44464e-08
1.41218e-07
2.00049e-07
-2.78612e-08
2.75597e-07
-3.94349e-08
2.11629e-07
2.90436e-07
3.37408e-08
-2.34749e-08
3.00702e-07
1.63431e-08
2.19205e-07
1.07817e-08
6.55685e-08
9.72022e-08
1.91077e-08
-1.27348e-08
2.65238e-08
4.08279e-08
7.19471e-09
-4.54603e-09
2.83155e-08
4.34776e-08
8.23461e-09
-5.16211e-09
1.49972e-07
1.58991e-08
1.554e-07
6.89549e-09
3.06263e-07
1.19382e-08
3.70062e-07
-3.88599e-07
-5.42735e-08
2.23091e-07
8.14566e-09
1.58034e-07
5.40255e-09
1.44669e-09
7.91806e-11
-1.60668e-11
1.50748e-09
-3.01238e-11
6.09346e-09
1.03791e-08
-8.37539e-10
1.68532e-08
2.75436e-09
-1.58152e-09
3.29709e-09
3.91739e-10
-1.44023e-10
1.62138e-09
-3.36084e-11
1.11223e-08
1.19628e-08
4.28639e-10
-1.95545e-10
1.74846e-09
7.07715e-11
-1.44335e-11
6.53926e-09
9.31193e-10
-7.04022e-09
3.54259e-09
4.35287e-10
-3.81719e-09
-1.60687e-10
1.80289e-08
3.10038e-09
-1.77162e-09
3.03772e-08
1.93688e-08
1.49225e-09
-8.30775e-10
4.65628e-08
-4.82108e-08
-2.54828e-09
7.00687e-08
-4.19605e-09
1.03585e-07
1.04725e-08
-6.71526e-09
7.25879e-08
-1.48944e-09
1.07342e-07
4.26186e-09
-2.55361e-09
4.88521e-08
7.36501e-08
-1.30601e-09
1.0905e-07
3.4647e-09
-2.15428e-09
7.27347e-09
1.23649e-08
-1.21942e-10
3.14333e-08
8.48118e-10
2.00305e-08
4.68103e-10
-2.47459e-10
1.8048e-09
-3.65452e-12
3.94196e-09
5.37617e-11
-1.8525e-11
3.97647e-09
1.81967e-09
1.96746e-11
-4.01287e-12
7.34165e-09
-5.50296e-11
3.18129e-08
7.71613e-10
3.21431e-08
4.93865e-08
-5.09277e-11
1.24901e-08
-1.22099e-10
2.02511e-08
4.41153e-10
-2.40708e-10
1.26087e-08
2.04515e-08
3.32007e-12
1.13191e-11
7.40893e-09
-1.17771e-11
4.01182e-09
-7.28703e-12
1.13794e-06
8.99548e-07
2.5573e-08
1.15006e-06
5.45049e-07
5.48968e-07
4.15229e-07
7.36622e-09
7.04435e-07
1.70879e-08
-1.1285e-08
7.10236e-07
5.71811e-09
9.08031e-07
-4.41319e-09
5.70247e-09
1.42887e-06
5.44433e-08
-3.76846e-08
1.44563e-06
1.00301e-09
4.17878e-07
-5.09922e-09
-4.26781e-09
1.14018e-07
1.67087e-08
-1.20033e-08
1.64861e-07
-4.24001e-08
2.25834e-07
7.4499e-08
-1.67599e-10
1.1036e-07
-4.17359e-10
1.59972e-07
1.68475e-09
-8.88556e-10
3.10056e-07
4.71539e-09
-3.11861e-07
-2.90923e-09
1.83544e-09
-3.34785e-12
8.3422e-13
1.10832e-07
-1.10297e-07
1.60766e-07
-1.60157e-07
2.13927e-09
2.27059e-07
-3.45516e-09
-2.26351e-07
2.74758e-09
7.47488e-08
-1.60507e-09
4.95041e-08
-1.14426e-09
7.42913e-08
8.28329e-09
3.21907e-08
-7.75005e-10
2.04658e-08
-4.95507e-10
1.26091e-08
-2.96164e-10
1.83292e-09
6.33344e-12
4.00788e-09
2.94551e-11
7.40509e-09
-1.62053e-10
7.76956e-11
3.19112e-08
4.91349e-08
5.50484e-09
-3.52523e-09
3.32786e-08
7.70671e-08
2.90405e-08
5.11175e-08
1.92238e-08
-1.2265e-08
1.2475e-08
2.02665e-08
2.15784e-09
-1.24616e-09
7.32073e-09
6.62817e-10
1.8098e-09
-2.41818e-11
3.95964e-09
3.11557e-10
-1.15532e-10
1.15347e-06
9.09323e-07
5.8878e-08
1.45217e-06
8.2466e-08
-6.93257e-08
1.16391e-06
5.48349e-07
7.10255e-07
5.01273e-08
-7.18007e-07
-4.23755e-08
9.18073e-07
2.64423e-07
-9.65381e-07
-2.17116e-07
7.59503e-07
2.4399e-07
5.55506e-07
1.75619e-07
5.91721e-07
1.92912e-07
4.17045e-07
3.52187e-08
1.83392e-06
1.4653e-06
3.80373e-07
-3.1841e-07
2.31919e-07
-5.98344e-08
1.27377e-07
2.53777e-07
1.82304e-07
6.02461e-08
-4.17649e-08
3.11048e-07
2.85047e-08
-2.22768e-08
3.17273e-07
-8.16923e-08
3.43743e-07
-8.40119e-08
4.23757e-07
1.39406e-07
-1.08162e-07
4.55001e-07
1.49701e-07
-1.13629e-07
1.2179e-06
-3.0377e-07
1.52727e-06
-3.73324e-07
1.90562e-06
-4.54125e-07
1.28745e-06
1.60807e-06
-6.98398e-07
1.02516e-06
5.85705e-07
6.34932e-07
8.1058e-07
4.85772e-07
-3.97643e-07
-5.48201e-07
8.68862e-08
2.79839e-08
2.00783e-07
3.73352e-07
2.77543e-07
1.95267e-07
-1.46312e-07
1.41158e-07
1.06034e-07
9.67254e-08
7.41143e-08
4.91073e-07
3.20383e-07
-2.53142e-07
2.11778e-08
7.48857e-09
1.30584e-08
4.32515e-09
1.90115e-09
-8.44421e-11
4.15567e-09
-4.01036e-10
7.67407e-09
2.30182e-09
-1.07893e-09
4.83356e-09
2.21774e-09
3.51813e-10
-7.31879e-11
5.80777e-08
1.81365e-08
3.8055e-08
1.13624e-08
2.43487e-08
6.83489e-09
4.25825e-08
6.48518e-08
4.98926e-08
-3.22591e-08
1.50817e-08
3.89601e-09
8.89696e-09
2.05513e-09
-9.51802e-10
2.72876e-08
1.99057e-08
1.69226e-08
1.15686e-08
5.83858e-08
8.37294e-10
8.7581e-08
4.48123e-09
3.84747e-08
5.63956e-10
-3.86765e-08
5.86651e-08
3.03701e-09
-5.97082e-08
-1.99398e-09
8.90253e-08
-9.18868e-08
-5.8872e-09
1.3023e-07
-1.34072e-07
-8.75822e-09
1.85892e-07
1.75361e-08
-1.90821e-07
-1.26001e-08
2.49286e-08
3.62138e-10
-2.5069e-08
1.58043e-08
2.21753e-10
-1.58985e-08
-1.30464e-10
8.39115e-07
1.14644e-07
-8.66621e-07
-8.71392e-08
4.86747e-07
-5.09429e-07
-7.28111e-08
6.30318e-07
1.22754e-07
-6.57579e-07
-9.54933e-08
1.8061e-06
1.62937e-08
-1.81685e-06
-5.53709e-09
2.26146e-06
1.21898e-07
-9.95312e-08
2.28382e-06
-2.36741e-06
-4.5207e-07
1.40538e-09
-1.41497e-09
-2.55637e-12
3.07723e-09
3.26536e-11
-3.09773e-09
-1.21508e-11
6.53555e-10
7.12192e-07
8.98706e-07
-6.17575e-07
5.58311e-07
4.92763e-07
4.31227e-07
3.85688e-07
3.56197e-08
2.23031e-08
3.39455e-08
2.42763e-08
1.67431e-08
1.05132e-08
8.24835e-08
5.49359e-08
6.47459e-08
-4.69264e-08
1.73075e-07
1.20947e-07
1.22453e-07
-8.92412e-08
2.41062e-07
-1.66549e-07
3.2649e-07
2.96279e-07
-2.23772e-07
8.79687e-10
5.04895e-09
9.99286e-09
6.18805e-09
-1.32729e-08
5.43355e-09
2.90796e-09
-7.26146e-09
2.49503e-09
1.08005e-09
-3.34894e-09
-2.26132e-10
-9.89216e-06
3.68752e-06
-1.07831e-05
8.90946e-07
-1.67923e-05
2.04798e-05
1.57157e-07
-7.6146e-06
-1.09403e-05
7.12624e-06
-6.23529e-06
5.90725e-05
2.80944e-05
-7.45744e-06
-1.08739e-05
-4.71421e-06
-6.63271e-08
6.32673e-06
-7.86487e-06
9.72589e-06
-1.2562e-05
0.000108686
-4.40023e-06
0.000116101
3.24946e-05
-2.74323e-06
-1.55881e-05
-9.79221e-06
-3.88572e-06
-1.53814e-06
-2.83613e-06
-1.99922e-06
3.5021e-06
0.000111701
2.53465e-05
0.000141936
7.1481e-06
4.88056e-06
-7.62379e-06
-5.72676e-06
-6.45417e-06
-9.13396e-06
1.79718e-06
-1.15894e-05
-5.42386e-06
-7.20041e-06
7.58712e-06
-1.04232e-05
9.44314e-06
1.77655e-06
-5.50132e-06
-1.58828e-06
3.7188e-06
0.000167283
1.20287e-05
-1.89703e-06
-6.46653e-06
-1.21809e-05
-8.17731e-06
-1.286e-07
-9.00536e-06
-7.64597e-06
-6.03472e-06
-3.41208e-06
3.8671e-07
-9.80104e-07
-3.72477e-06
4.88298e-06
-5.30708e-06
-8.03323e-07
2.71492e-06
0.000139533
1.84952e-05
2.77498e-05
-8.36355e-06
-1.19927e-05
1.90102e-06
-1.40819e-05
-7.54816e-07
-8.30591e-06
-8.25054e-06
-4.85612e-06
-1.61124e-06
-9.4468e-06
-4.49627e-06
-6.41806e-06
5.80127e-06
-6.78137e-06
5.83942e-06
-4.52943e-06
1.15822e-06
-7.77651e-07
4.38771e-06
-3.51824e-06
-1.22761e-06
2.28856e-06
0.000321717
4.6245e-05
-5.2696e-06
3.62914e-06
-1.00917e-05
-9.22582e-06
-9.06073e-06
-1.31067e-05
-7.45066e-06
-6.46949e-06
-2.21518e-06
-2.97731e-06
-4.02198e-06
1.92178e-06
-6.16786e-07
-9.41952e-07
4.90586e-06
-3.37121e-06
-5.16536e-06
1.53465e-06
-3.51616e-06
8.69464e-07
-1.03835e-06
1.85234e-06
0.000147887
0.00017383
5.15146e-05
-4.20399e-05
-1.64046e-06
1.08099e-05
-1.463e-05
4.53829e-06
-1.59473e-05
-2.00357e-05
-1.10423e-05
-6.84555e-06
-2.06435e-06
-1.55853e-05
-3.42869e-06
-8.68466e-06
8.80916e-07
-6.99929e-06
-2.98408e-06
5.89698e-06
4.42401e-06
-6.51377e-06
4.03719e-06
-5.36596e-06
2.91291e-06
-3.6307e-06
-2.6467e-06
-2.8907e-06
3.05979e-06
-9.073e-07
0.000189926
0.000364142
9.47473e-06
1.43069e-05
-3.82008e-06
-1.1409e-05
1.56338e-05
-4.45044e-06
-1.78879e-05
-1.76496e-05
-7.46587e-06
-9.56558e-06
-1.9065e-06
-6.11837e-06
-2.08976e-06
-1.32877e-06
-7.178e-07
-5.70649e-06
3.82085e-06
1.69096e-07
-2.50513e-06
-2.42091e-06
1.59783e-06
1.2124e-07
2.47765e-06
9.35198e-05
9.64066e-05
0.000229982
2.37816e-05
-1.94538e-05
4.22474e-06
-2.36095e-05
1.91591e-05
-2.50795e-05
8.5659e-08
-1.02613e-05
-7.6266e-06
1.06058e-05
-1.93153e-05
1.66573e-06
-2.44567e-05
-5.55938e-06
-9.65124e-06
-1.675e-06
-8.02487e-06
2.67764e-06
-4.7674e-06
2.72776e-06
-4.05653e-06
2.25559e-06
-4.53865e-06
5.00025e-06
-1.88565e-06
-2.33603e-06
-8.23079e-07
-2.35641e-06
5.51307e-07
2.13639e-06
0.000110464
4.36147e-05
-1.6944e-05
0.000326389
2.26069e-05
-1.98331e-05
5.62569e-06
3.21403e-05
-1.83821e-05
8.472e-07
-5.92046e-06
-1.01756e-05
-1.82324e-05
4.09049e-06
-8.70953e-06
-2.2791e-05
2.07677e-05
-7.81496e-06
-7.97624e-06
2.90265e-06
-9.69987e-06
-2.32262e-06
-2.03964e-06
-1.80094e-06
-3.5897e-06
4.61609e-07
-3.18824e-06
-4.24677e-06
1.3026e-06
1.91074e-06
-3.17949e-06
-1.58508e-06
5.85559e-07
2.51695e-06
0.000239867
-1.62037e-05
0.000126668
2.66706e-05
-2.95265e-05
2.7738e-06
-2.65146e-05
2.67568e-05
1.37582e-05
-3.26773e-05
2.79021e-05
-2.70549e-05
2.2593e-06
-1.42661e-05
-1.41419e-05
8.62014e-06
-2.94772e-05
-2.02332e-06
-4.48199e-05
-1.07176e-05
-1.02355e-05
-6.79722e-06
-1.01576e-06
-2.72663e-06
2.37367e-06
-4.69629e-06
1.55005e-06
-5.39064e-06
-2.94417e-06
-1.26875e-06
-2.66266e-06
1.50688e-06
1.07758e-06
-1.93139e-06
1.30581e-06
2.30823e-06
0.000223664
0.000156194
1.90808e-05
-2.85591e-06
3.14158e-05
-1.6307e-05
2.42205e-07
-1.76576e-05
-4.77519e-06
-4.53249e-05
1.7765e-05
-1.20068e-05
2.15837e-06
-2.2762e-05
-2.08571e-05
-4.68432e-05
-7.81298e-06
-2.69485e-06
-8.02277e-06
-9.21977e-06
-2.52525e-06
-3.52965e-07
-3.14623e-06
-3.74779e-06
3.42275e-07
-5.73291e-06
1.21874e-07
-4.18919e-07
-2.77563e-06
1.95213e-06
-1.15578e-06
-8.53805e-07
-1.00242e-06
1.38607e-06
2.74562e-06
0.000309013
8.18298e-05
7.43643e-05
-1.5933e-05
1.62249e-05
1.51087e-05
4.05498e-05
-4.88729e-05
4.91151e-05
-4.39398e-05
2.62822e-05
-2.756e-05
-1.41652e-05
3.23972e-06
-2.06037e-05
-3.22135e-05
1.13564e-05
-4.30864e-05
-3.7568e-06
-1.05078e-05
-8.14464e-06
2.77575e-06
-1.24595e-05
-2.87822e-06
6.01554e-07
-2.50296e-06
-3.40551e-06
1.90346e-07
-5.61104e-06
-3.75262e-07
-2.37105e-06
-8.23502e-07
-1.60753e-06
-1.49428e-06
4.51751e-07
-2.20825e-06
6.40477e-07
1.20583e-06
-1.35955e-06
2.05199e-06
2.25212e-06
0.000390843
9.02972e-05
2.94673e-05
2.91957e-07
-1.43586e-05
5.44577e-05
-8.32313e-06
5.17531e-06
-2.81755e-05
6.85431e-05
-7.67242e-05
6.19731e-05
5.73126e-05
-8.95331e-05
-1.09255e-05
2.25881e-06
-1.74584e-05
-3.14528e-06
-2.30391e-05
-9.17439e-06
-3.173e-05
3.1974e-05
-6.10694e-05
-1.32836e-05
-8.33499e-06
-3.32794e-06
-1.31843e-05
-9.68374e-06
-1.9014e-06
-5.01645e-06
1.61094e-06
-4.4426e-06
-9.98009e-07
-5.42069e-06
-2.74631e-06
2.5412e-06
-2.05116e-07
-2.43103e-06
-1.04253e-06
5.20114e-07
-1.56777e-06
-1.53724e-07
-2.00129e-07
1.76792e-06
2.07068e-06
7.52897e-05
0.000227603
0.00016324
1.50075e-05
2.97593e-05
-4.28634e-05
4.00992e-05
-6.33678e-05
6.8401e-05
4.03676e-05
-1.47511e-05
-3.22204e-05
-1.51996e-05
-2.61844e-05
9.81907e-06
-4.11484e-05
2.44027e-07
-3.09185e-05
-3.0151e-05
-9.95564e-06
-1.16629e-05
1.17662e-05
-2.2868e-05
-4.01844e-06
-2.83166e-06
1.85173e-06
-6.4187e-06
-6.66694e-07
-2.63615e-06
-1.56264e-06
-2.66537e-07
-1.04765e-06
-1.42512e-06
7.99799e-07
-9.53523e-07
-2.30365e-07
1.22499e-06
-3.02769e-07
1.09338e-06
1.75182e-06
2.29797e-06
0.000302893
0.000596995
5.78709e-05
6.60663e-05
-1.31041e-05
0.000135689
-2.59671e-05
5.03322e-06
-9.53214e-05
8.12273e-05
-9.95389e-05
8.47878e-05
-0.000123218
-0.000113448
-2.50187e-05
-1.63653e-05
1.20227e-05
-2.89365e-05
-1.22119e-05
-3.06744e-05
1.91602e-05
-7.06546e-05
1.03823e-05
-4.93111e-05
-2.17218e-05
-1.09962e-05
-1.11018e-05
-1.63679e-05
-5.87016e-06
-2.36961e-06
-9.79937e-07
4.99073e-07
-7.08539e-06
-1.82918e-06
-8.1729e-07
-1.41931e-06
-6.25317e-07
-1.18389e-06
1.31607e-07
7.90611e-07
1.07879e-06
-5.46145e-07
2.15103e-06
2.06849e-06
0.000321191
0.000188507
0.000114386
6.44017e-05
0.000275804
-6.53081e-06
5.29622e-05
-7.21602e-05
0.000109722
0.000128251
-0.000182539
8.7218e-05
-1.83116e-05
-3.84298e-05
-4.27931e-05
-2.8388e-05
-8.65078e-06
-1.69138e-05
2.5353e-05
-4.10567e-05
1.73891e-05
-3.75649e-05
-5.14945e-05
-3.89289e-05
-5.12572e-06
-1.65961e-05
-6.76872e-06
-3.59008e-06
-4.22751e-06
-2.74697e-05
1.55401e-05
-6.36924e-06
-3.34955e-06
-4.09876e-07
5.15447e-06
-6.58632e-06
-2.2366e-06
-5.60458e-07
-6.48585e-08
-1.01947e-06
-1.87427e-06
-1.64417e-07
-4.94403e-07
-1.63087e-07
6.2601e-07
-2.88181e-07
5.32648e-07
8.2548e-08
2.03512e-06
0.000509698
0.000178788
5.59778e-05
0.000530827
6.56294e-05
-1.9198e-05
0.000109316
4.05711e-07
-5.42885e-05
-0.000135937
0.000223155
-0.000220134
-0.000143622
0.000114723
-0.000133034
0.000105192
-0.000154274
4.19579e-05
-0.000118497
-8.47509e-05
2.5906e-05
-3.70388e-05
3.13741e-06
-3.43029e-05
-4.09227e-05
-1.57037e-05
-2.01758e-05
1.99383e-06
-7.74005e-05
-2.06659e-05
-1.3006e-05
-3.10407e-06
-1.03588e-05
-9.38198e-06
-1.19296e-05
-5.26131e-06
-1.43185e-06
-1.10792e-06
-3.75943e-06
-3.62322e-07
-4.86735e-06
-3.97371e-07
-1.08433e-06
1.65015e-06
5.6582e-07
-2.03869e-06
-6.5749e-07
-4.98385e-07
3.37829e-07
-8.13218e-07
1.03103e-06
8.95766e-07
1.97782e-06
0.00045372
0.000234766
0.000858252
7.80011e-06
0.000107646
-4.20162e-05
-0.000184479
9.01181e-05
0.00022054
-9.4361e-05
9.99856e-05
-0.000274592
0.000138656
3.02069e-06
0.000252352
-2.88993e-05
-1.4537e-05
-4.90819e-05
-7.65394e-05
-5.88449e-05
1.60689e-05
-4.01762e-05
-3.11655e-05
2.71933e-05
-5.66264e-05
-4.73691e-05
5.17519e-06
-7.54067e-05
-2.79984e-05
-5.07489e-06
-9.90194e-06
-1.5591e-05
-3.78226e-07
-1.34629e-05
-9.00375e-06
-6.69317e-06
-5.22967e-06
-2.04752e-06
-1.47287e-06
-2.54917e-06
-5.41174e-07
-1.60556e-07
-1.16315e-07
2.17815e-07
-2.64691e-07
1.05937e-06
-1.63607e-07
4.06626e-08
-1.70686e-06
2.24251e-06
1.82711e-06
1.27502e-06
0.00044592
0.000177879
0.000111452
7.71194e-05
5.68862e-05
0.000866052
3.05263e-05
0.000142463
-0.00018458
0.000126179
-0.000174607
0.00018954
-0.000113696
0.000255373
0.000121333
-0.000238622
-0.000150233
0.000136533
-0.00015107
6.0646e-05
6.16893e-05
-0.000137185
-0.000120534
-2.41073e-05
9.74861e-06
-3.63407e-05
-4.59297e-05
-2.94331e-05
-4.21939e-05
-2.9477e-05
-4.08789e-05
-3.30733e-05
-2.54929e-05
-1.38411e-05
-7.19712e-06
-1.80664e-06
-4.46036e-06
-2.6805e-06
-2.2328e-06
-4.02204e-06
9.1633e-07
6.47992e-07
-2.96385e-06
-1.18917e-06
-2.76872e-07
1.77152e-07
7.94683e-07
-1.22944e-07
5.35647e-07
5.13002e-07
5.52083e-07
1.45304e-06
1.73741e-06
0.000334468
0.000289331
0.000134006
-0.000159396
0.000587023
0.000215107
-4.21172e-05
0.000355222
-0.000151563
0.000277742
-0.000230631
1.49334e-05
0.000168537
0.000276905
-0.000282233
0.000377753
-9.98489e-05
-0.000117288
-0.000208373
-1.36998e-05
-9.0424e-05
-7.5496e-05
-7.96554e-05
-3.38559e-05
-2.65921e-05
-7.53628e-05
2.7305e-05
1.16197e-05
-6.94989e-05
-4.11384e-05
-7.03558e-05
-2.64477e-05
-6.62558e-06
-2.59262e-05
-5.96045e-06
-1.33839e-05
-1.2109e-05
-1.83494e-05
-2.55787e-06
-7.88064e-06
-4.63925e-06
-6.267e-06
3.3157e-06
-2.9513e-06
-4.91331e-06
-3.10571e-06
-2.31586e-06
-9.97192e-08
-8.87009e-07
-3.02157e-07
-1.56825e-06
-2.3781e-07
2.81681e-07
1.14866e-07
-6.39006e-07
1.04865e-06
1.19109e-06
-2.84369e-07
1.96271e-06
1.41855e-06
0.000185914
0.000493864
0.000111744
0.000103417
0.000126017
2.22621e-05
0.000427627
8.90896e-05
0.000188514
0.000203658
4.71109e-05
0.000280084
-0.000261972
-0.000209217
-5.32813e-06
-0.000271829
0.000277904
9.10849e-05
-0.000238308
-0.000222073
7.90904e-05
-0.000208577
6.42065e-05
-0.000169514
-0.000139702
-3.8517e-05
-6.82394e-05
-3.82118e-05
-7.92972e-06
-4.80578e-05
-5.78792e-05
3.36708e-05
-0.000111494
-3.25518e-05
-8.09833e-06
-1.93444e-05
-3.04584e-05
-1.04385e-05
-3.90597e-06
-7.95495e-06
2.14355e-06
-7.86461e-06
-5.24926e-06
-7.4761e-07
-4.3768e-06
-9.86728e-07
-1.8704e-06
1.48419e-06
4.38704e-08
4.4207e-07
-1.36307e-06
1.47794e-06
-2.47092e-06
-3.98199e-07
4.09644e-07
9.0672e-07
5.44166e-07
1.69178e-06
1.44674e-06
0.000679779
0.000215161
0.000148279
0.00099089
0.000362507
-3.0375e-05
-0.000273418
0.000405586
0.000327195
-0.000217072
0.000428784
-7.64258e-05
-2.3664e-05
6.26124e-05
0.00026119
-0.000277157
-0.00015088
-0.000147223
-1.34959e-05
-0.000129487
-0.000105308
-7.14631e-05
-0.000106756
-4.61415e-05
-8.17286e-05
-5.61164e-06
-5.73656e-05
-6.00975e-06
-5.22676e-05
-7.78234e-05
-4.06501e-05
-8.46717e-06
-9.99543e-06
-6.53253e-06
-1.08772e-05
-2.0463e-05
-1.18609e-05
-5.72106e-06
-4.74501e-07
-8.72452e-07
-6.19556e-06
-5.12441e-06
-3.86209e-07
-5.14468e-06
-9.21001e-07
-9.92986e-07
1.75944e-07
1.14448e-08
-3.01109e-07
7.30776e-07
8.45276e-07
2.45037e-07
4.90147e-07
1.73446e-06
1.58065e-06
0.000368427
0.000509437
0.000311352
0.000157767
5.7394e-05
0.000178654
0.000332132
0.000132168
0.000110123
0.000352358
-0.000284854
0.000119871
-0.000398325
0.000380172
-0.000317559
-1.59671e-05
-0.000361342
0.000247445
0.000238915
-0.000267094
6.76042e-05
-0.000252411
4.12861e-05
-0.000197091
2.23852e-05
-0.000146594
-9.38483e-05
-2.3178e-05
-9.15656e-06
-8.35783e-05
6.11051e-06
-4.01318e-05
-6.86668e-05
-2.43631e-05
-6.29772e-05
-5.82773e-05
-4.67606e-05
-1.84626e-05
-1.74097e-05
-1.5882e-06
-3.27132e-05
-1.88748e-05
-5.11105e-06
-1.13864e-05
-7.06801e-06
2.02657e-08
-5.97634e-06
3.6257e-06
-5.53089e-06
-4.61868e-06
1.63661e-06
-2.55761e-06
1.87389e-07
-1.59207e-06
4.29667e-07
3.55128e-07
-3.24907e-07
7.35185e-07
4.40122e-07
1.53805e-07
1.87105e-06
1.17326e-06
0.000877864
0.000469118
0.000236048
0.000352724
0.000103719
-2.05912e-05
0.000618186
-0.000558483
0.000402232
-0.000486018
0.000607374
-0.000292109
-0.000255015
0.000707595
-0.000164983
-1.81537e-05
4.37832e-05
-0.000377309
0.000336001
-0.00046015
-0.000277834
-2.81789e-05
-0.000184807
-0.000155805
-0.000124209
-0.000117026
-6.97526e-05
-9.27349e-05
-1.14022e-05
-3.40213e-05
-9.30299e-05
2.74187e-05
-9.03959e-05
-4.68751e-05
-2.25777e-05
-4.54234e-05
-1.40474e-05
-7.71676e-06
-1.33516e-05
-2.74599e-06
-9.69295e-06
-3.43014e-05
-2.39858e-05
-1.09167e-06
-8.64043e-06
-5.95607e-06
-1.90519e-06
-2.98207e-06
-9.65543e-07
-1.40468e-06
7.54574e-07
3.02215e-08
2.95063e-07
5.93928e-07
6.97795e-07
1.48011e-06
1.19198e-06
0.000470285
0.00027484
0.000407579
0.000132329
0.000194278
0.000456443
0.000537891
5.97031e-05
-8.37857e-05
-0.000599399
0.000315264
0.00045258
0.000112851
-0.000399578
0.000416953
-0.000354155
-0.00037317
-0.000466917
2.2269e-05
-0.000124149
-0.000306013
6.89113e-05
-0.000364924
-0.000253718
3.18761e-05
-0.000187681
7.69145e-05
-4.72736e-05
-0.000201123
-0.000162488
-6.56112e-05
-3.83589e-05
-6.78182e-05
-6.94529e-05
-5.94708e-05
-2.10683e-05
-1.24389e-05
-6.30864e-06
-2.23549e-05
-1.19465e-05
-2.04013e-05
-1.76772e-05
-1.59966e-05
-9.73211e-06
-1.3889e-06
2.56009e-06
-1.1121e-05
5.06584e-06
-8.51617e-06
-6.97104e-06
1.89874e-06
-4.08787e-06
1.1058e-06
-6.63769e-06
-2.86429e-06
-6.50107e-07
3.25284e-07
4.21541e-07
-5.51684e-08
6.49096e-07
-1.06311e-06
2.76254e-07
2.8813e-07
1.527e-06
8.22742e-07
0.00101827
0.000682419
-4.0369e-05
0.000326607
0.000286238
0.000214231
0.000242211
4.28135e-05
0.000495078
-0.000444294
-0.000559786
0.000827806
0.000515613
-0.000768103
0.000592706
-0.000284135
-0.000140126
-0.000286727
6.27987e-05
-0.000502197
9.37472e-05
-0.000444648
0.000378048
-0.000422596
5.89104e-05
-0.000296012
-0.000221842
-0.000110767
-0.000248397
-0.000124129
-0.00010397
-2.88693e-05
-7.83509e-05
-2.52496e-05
-3.89489e-05
-4.42033e-05
-3.90695e-05
-5.11789e-07
-1.105e-05
-5.07169e-06
-2.86636e-05
-3.23478e-05
1.4669e-05
-3.36738e-05
-8.56091e-06
-3.45032e-06
-1.00789e-05
-3.33343e-07
-2.18913e-06
-5.53189e-06
3.52202e-06
1.89958e-06
-3.80581e-06
9.41524e-07
-5.71115e-06
1.38839e-06
-2.54969e-06
3.66373e-07
-4.14013e-07
1.54274e-06
5.64384e-07
7.04263e-07
1.21619e-06
8.80511e-07
0.00069133
0.000722788
8.41473e-05
0.00050047
0.000686505
5.07843e-05
0.0006026
0.000268019
-0.000252489
-0.000742638
0.000308572
-0.000434066
0.000785294
0.000649762
-0.00092542
0.000135869
-0.00030643
0.000519325
-0.000439398
-0.000425578
-0.000138218
-0.000271714
-0.000363686
-0.000411725
-3.18398e-06
9.91395e-06
-0.000292828
5.89352e-05
-0.000231756
-0.000169702
-6.15877e-05
-0.000186809
-5.08965e-05
-5.93796e-05
-7.32322e-05
-2.56191e-05
-0.00010722
-6.41985e-05
-4.36915e-05
-1.30507e-05
-3.95813e-05
-1.76788e-05
-1.61217e-05
1.518e-06
-4.33326e-05
-1.47983e-05
-1.88755e-05
-4.61129e-06
-1.35292e-05
1.0574e-05
-1.09073e-05
-8.21219e-06
-2.00987e-06
-1.90622e-06
-4.76963e-06
3.35017e-06
-1.1613e-06
-1.17637e-06
-4.14451e-06
1.12873e-06
4.85502e-07
-3.23385e-07
8.87768e-07
-2.38496e-06
2.18761e-07
3.35682e-07
1.28595e-06
6.42305e-07
0.000607183
0.000806936
0.00024701
0.000249279
0.000251191
0.000470468
0.000439495
0.000653384
-0.000881249
0.00114927
-0.000593961
0.000490148
-0.000826195
0.000351228
-0.000275659
-0.000334926
-0.000170561
7.99269e-05
-0.000556962
0.000189335
0.000196708
-0.000614912
-0.000653237
0.000285248
4.80393e-05
-0.000414909
-0.000282914
-0.000172821
0.000111755
0.000132862
-0.000281457
-0.00019445
-0.00012743
-5.23449e-05
-0.000110276
-9.88513e-05
-9.81787e-05
-5.11478e-05
-9.04157e-06
-5.67422e-05
-5.72601e-05
-1.46037e-05
3.36155e-06
-3.87213e-05
-1.81598e-05
-2.34868e-05
-3.45015e-06
-2.95523e-06
-1.12422e-05
-2.69516e-06
-1.02221e-05
2.98321e-06
-5.2564e-06
-1.41945e-06
-8.19614e-06
1.20859e-06
3.61083e-06
-3.01578e-06
1.62117e-07
-1.49719e-06
1.44759e-06
5.54443e-07
6.43643e-07
1.0638e-06
0.000855676
0.000336467
0.000496289
-1.59425e-05
0.000721659
0.00124734
-0.000435904
0.000875398
-5.50536e-05
0.000555307
0.000998291
-0.000336047
-0.000647063
-0.00096307
0.000377579
0.00036098
-0.000505487
-0.000477035
0.000455314
-0.00026598
-0.000418204
-0.00036799
-0.000312941
-0.000300733
-0.000114176
-6.1066e-05
-0.000134028
-0.000148886
-9.55389e-05
-0.000148595
-7.50848e-05
-8.46296e-05
-0.00010982
3.08652e-05
-0.000162621
4.1107e-05
-0.000129717
-0.000139286
-6.01894e-05
-2.06654e-05
-2.28186e-05
-3.60768e-05
-5.31806e-06
-3.44415e-05
-3.34032e-05
-1.47097e-05
-2.6937e-05
3.70037e-07
9.45254e-06
-1.41974e-05
4.74487e-06
-1.21477e-05
-2.02591e-06
-1.42988e-05
-2.27318e-06
6.97514e-06
-9.6156e-06
-2.40224e-06
5.95054e-07
1.34168e-06
-1.28547e-06
-4.96054e-08
9.72124e-07
-7.87238e-07
-3.28481e-07
2.91619e-07
-3.37571e-07
7.7218e-07
7.94579e-07
3.66625e-07
0.00119214
0.000512231
0.000705717
0.000811441
0.000784656
1.22674e-05
9.07423e-05
0.000962277
0.00078772
-0.000842773
0.000662245
0.00128136
-0.00072605
0.00138467
0.000316007
-0.000585491
-0.000144507
-0.000351492
-0.000710345
-2.17206e-05
0.000236242
-0.000502221
-6.67128e-05
0.000342355
-0.000840376
0.000238573
-0.00037449
6.15497e-05
-0.000495999
-0.000205194
9.58912e-05
-0.000352749
-0.000195094
-0.000244425
5.20157e-05
3.93087e-05
-0.000210086
6.14914e-05
-0.00024711
-0.000159714
-0.000149129
-1.79425e-05
-0.000131756
-8.86095e-05
-9.31331e-05
-4.61526e-05
-8.12904e-05
1.19218e-05
-8.08548e-05
-5.88954e-05
-3.97595e-05
-2.04622e-06
-3.37732e-05
-1.94545e-05
2.15113e-06
-2.65669e-05
-1.63247e-05
6.58757e-06
-9.24833e-06
-9.99287e-06
-2.64045e-06
-5.99252e-06
3.21126e-06
2.87236e-06
-5.6135e-06
5.62127e-08
4.19179e-06
-2.92196e-06
1.84885e-07
-3.68612e-08
4.34609e-07
-6.81339e-07
-2.4673e-07
4.27954e-07
8.12877e-07
2.55945e-07
0.000162371
0.0010603
0.000131842
0.000499964
0.000543346
-9.45188e-05
0.00108817
-0.000150836
0.000796924
0.00105302
-0.000596947
-0.000180529
-0.00109731
0.000193186
0.000658617
-0.000712818
0.00102882
-0.00127784
0.000254885
-0.000977755
0.000462437
-0.000732066
-0.000226195
-0.000568934
-0.00049802
-0.000135918
-0.000434449
0.000354351
-0.000301085
-0.000256857
-0.000192409
-8.85358e-05
-0.000170777
-0.000185618
-1.13903e-05
-0.000141772
-0.000167071
-7.31911e-06
-0.000120365
-0.000105055
-0.000127443
-6.8933e-05
-5.68492e-05
-4.86469e-07
-4.18057e-05
-5.12673e-06
-2.86465e-05
-1.73034e-05
-5.96801e-06
3.83486e-06
-2.05989e-05
-6.33187e-06
-2.66076e-06
8.3303e-06
-1.26333e-05
-2.78126e-06
-2.74114e-06
2.08407e-06
-4.13558e-06
1.26983e-06
-4.89762e-06
-1.89919e-06
6.44478e-07
-2.8139e-06
1.81224e-07
5.56932e-07
7.31427e-07
0.00122267
0.00102793
0.000594483
0.000448828
0.000937335
0.000748628
-3.99431e-05
4.82957e-05
0.00102102
0.00143381
3.19996e-05
0.000500368
-0.000496476
0.00124224
0.00147077
-0.00104906
0.00130455
-0.000812148
0.000264937
-0.000249019
0.00122945
-0.000722869
-0.000269629
-0.000470215
0.00024478
-4.48822e-05
-0.000470975
-0.000524052
0.000343323
-0.000882824
-0.000841344
0.000245591
-0.000490269
-8.00978e-05
-0.000465218
-0.00021255
-0.000502448
0.000118442
-0.000280945
4.66365e-05
-0.000232255
0.000130031
7.47998e-05
-0.000300808
-0.000153162
5.02466e-05
-0.000241871
-0.000127685
-0.000103427
-4.39041e-05
-6.11508e-05
-0.000129577
-2.40161e-05
-6.84465e-05
3.93368e-05
-5.73357e-05
-4.69325e-05
-3.24814e-05
-9.75884e-06
1.32458e-05
-2.32714e-05
-1.00257e-05
-1.67641e-05
-1.95776e-05
7.20696e-06
-1.09911e-05
-4.30302e-06
2.15647e-06
-9.98821e-06
-2.05151e-06
-3.62779e-06
-3.50182e-06
9.14712e-07
1.70651e-06
-2.16942e-06
1.23383e-06
-1.52529e-06
-6.76893e-07
4.37014e-07
4.8208e-08
2.94413e-07
4.59856e-07
-8.60462e-08
-0.000912582
0.00101539
0.00020728
0.00108136
0.000634426
0.00136141
-0.000150131
0.000708685
0.00106932
-0.000470796
0.00146581
-0.000804185
0.000745767
0.000421708
0.000492404
-0.000964511
0.000980429
-0.00132192
0.000159954
-0.000838886
0.000200586
-0.000617088
-0.000225435
-0.000515858
-0.000400812
-5.88335e-05
-0.000539501
-0.000224256
-0.000244678
0.000354164
-0.000545316
-0.000330991
-0.000384006
-3.46315e-05
-0.000234309
-0.000102224
-0.00026894
-0.000226008
1.89198e-06
-0.000203409
-0.000114442
-0.000191625
-0.000147331
-0.000100488
-0.000153593
-2.91097e-05
-4.07522e-05
-3.71736e-05
-1.65834e-05
-4.22402e-05
-2.67897e-05
3.3697e-06
9.27073e-06
-2.29473e-05
-3.7841e-06
-1.35737e-05
-7.83174e-06
4.1628e-06
1.45031e-06
7.87581e-06
-7.79058e-06
-2.5871e-06
-4.62907e-07
-2.91462e-07
-2.39879e-07
3.42622e-07
-5.30859e-07
5.45902e-07
4.13427e-07
-2.05327e-07
0.00128864
0.000102811
0.000784557
0.00121128
-7.19783e-05
0.00117948
0.00059852
0.00161611
0.00137053
-0.000150296
0.00051774
-0.000624766
0.00144757
-0.00084122
0.00126293
-0.00162975
-0.000955171
0.00148646
-0.000125625
-0.000341496
-0.000678932
-0.000416502
0.000269526
-0.000529493
-0.000494961
-0.000115045
-0.000459646
-0.000760512
0.00014496
0.000529396
-0.000684461
-0.000753652
0.000112991
-0.000598842
-0.000471805
-0.000191152
-0.00029636
-1.85956e-06
-0.000425191
3.60995e-05
-0.000382147
-0.000371164
-0.000111567
-0.000201517
-0.000306066
-9.0471e-05
-5.686e-05
-0.000106916
-2.33866e-05
-7.7101e-05
3.8026e-06
-4.66764e-05
-0.000121331
-6.98619e-05
4.61684e-05
-5.37571e-05
-1.6994e-05
-3.07227e-05
-2.342e-05
-1.15175e-05
3.06611e-09
-1.36766e-05
-1.73578e-05
-3.66894e-06
3.49757e-06
-6.4255e-06
8.52276e-08
2.80821e-06
-6.08467e-06
-3.27112e-06
3.59414e-06
1.44645e-06
-3.88561e-06
8.73481e-07
-1.68633e-06
1.50439e-08
6.18754e-07
2.59232e-07
-4.56501e-09
0.00139145
0.000856535
-0.00013009
0.0013147
-6.32318e-05
0.00134137
0.0011075
0.00221463
0.00122024
-0.000968723
0.00100498
0.000606355
-0.000366822
0.00163293
0.000531291
0.000986783
-0.00100438
-0.00111241
0.000662887
-0.00132749
8.15804e-05
-0.000826973
-0.000259967
-0.000610006
1.21593e-05
-0.000485961
-0.000615552
-0.000155065
-0.000536283
-0.000640661
0.000289655
-0.000173651
0.000304406