/*--------------------------------*- C++ -*----------------------------------*\
| =========                 |                                                 |
| \\      /  F ield         | OpenFOAM: The Open Source CFD Toolbox           |
|  \\    /   O peration     | Version:  v1912                                 |
|   \\  /    A nd           | Website:  www.openfoam.com                      |
|    \\/     M anipulation  |                                                 |
\*---------------------------------------------------------------------------*/
FoamFile
{
    version     2.0;
    format      ascii;
    class       volScalarField;
    location    "10000";
    object      timeScale;
}
// * * * * * * * * * * * * * * * * * * * * * * * * * * * * * * * * * * * * * //

dimensions      [0 0 1 0 0 0 0];


internalField   nonuniform List<scalar> 
71770
(
7.49515e-09
7.49502e-09
7.49493e-09
7.49512e-09
7.49534e-09
7.49535e-09
7.49535e-09
7.49535e-09
7.49527e-09
7.4945e-09
7.49429e-09
7.49503e-09
7.49524e-09
7.49534e-09
7.4953e-09
5.518e-05
4.20431e-05
1.66226e-07
4.24986e-07
1.7516e-06
9.11614e-07
4.77383e-08
4.77381e-08
3.11903e-06
1.76317e-05
1.24343e-05
2.39782e-05
8.29761e-06
5.23022e-06
3.1893e-05
1.66225e-07
4.24985e-07
9.11632e-07
1.75174e-06
0.000324453
0.00012059
9.3425e-05
9.43602e-05
0.000121288
0.000155005
0.000197232
0.000122958
0.000157044
0.000199456
0.000204222
9.55708e-05
0.000250084
0.00025227
0.00025792
5.52758e-05
4.21853e-05
7.20459e-05
5.55637e-05
7.23782e-05
7.28905e-05
9.36692e-05
0.000120534
0.000154394
0.000197017
5.58701e-05
7.36498e-05
5.6254e-05
0.000160787
0.000125633
9.72519e-05
0.000160494
1.24469e-05
1.76649e-05
2.40481e-05
2.40781e-05
1.76652e-05
3.20088e-05
3.21036e-05
3.21197e-05
0.000335998
0.000337717
0.000336611
0.000331792
4.23754e-05
4.25076e-05
4.26237e-05
0.000331375
0.000163443
0.000126897
0.000208418
0.000125464
0.000163046
0.000263617
0.000266494
0.000209533
0.000207888
0.000266363
0.000204427
0.000263739
0.000258266
8.28467e-06
2.39336e-05
9.1163e-07
3.11887e-06
5.22989e-06
5.2255e-06
8.25913e-06
1.23518e-05
1.75208e-05
3.11772e-06
3.20773e-05
4.24982e-07
1.66221e-07
4.7737e-08
4.24975e-07
9.11608e-07
1.75168e-06
1.66218e-07
4.24965e-07
9.1156e-07
1.75143e-06
7.40035e-05
5.41307e-05
5.57012e-05
4.05307e-05
3.9741e-05
4.16762e-05
0.000122682
5.28446e-05
7.21149e-05
9.55301e-05
7.02171e-05
9.30525e-05
1.7295e-05
2.3641e-05
3.18092e-05
2.31222e-05
3.10932e-05
3.03422e-05
2.26762e-05
8.20382e-06
1.22225e-05
3.11561e-06
5.21722e-06
3.11092e-06
5.19905e-06
1.69751e-05
1.6741e-05
2.98905e-05
4.2525e-05
2.24298e-05
1.66149e-05
4.77362e-08
4.77356e-08
4.24954e-07
9.11489e-07
1.751e-06
1.66216e-07
4.77368e-08
9.1136e-07
1.66223e-07
9.11227e-07
4.24944e-07
4.77383e-08
4.24949e-07
1.66219e-07
1.75006e-06
3.10599e-06
1.74909e-06
5.16936e-06
5.17927e-06
8.1404e-06
1.2062e-05
8.10455e-06
1.19594e-05
5.16369e-06
8.08449e-06
1.19033e-05
4.24939e-07
9.1117e-07
3.10378e-06
1.7487e-06
4.77383e-08
1.66223e-07
1.66223e-07
4.77383e-08
4.24935e-07
3.1025e-06
3.10132e-06
5.15874e-06
9.11138e-07
1.74846e-06
9.11103e-07
1.74824e-06
4.24932e-07
1.66223e-07
0.000119632
9.07662e-05
0.000116218
5.19145e-05
5.10618e-05
3.92098e-05
6.86897e-05
6.72233e-05
8.84291e-05
0.00015695
0.000152438
3.87455e-05
2.9355e-05
1.18648e-05
1.18065e-05
2.22226e-05
1.65195e-05
1.65061e-05
2.22635e-05
8.06792e-06
1.18599e-05
1.6524e-05
2.95944e-05
4.77383e-08
1.18396e-05
1.64706e-05
2.21458e-05
8.06216e-06
5.1576e-06
8.0732e-06
3.10117e-06
1.74822e-06
9.11095e-07
4.77377e-08
1.66221e-07
4.24927e-07
3.10222e-06
5.16154e-06
3.09749e-06
8.03357e-06
5.14531e-06
9.1106e-07
1.74837e-06
4.24889e-07
4.77328e-08
1.66204e-07
0.000113449
8.68504e-05
0.000193387
0.000148205
0.000115505
9.25072e-05
5.0814e-05
6.84039e-05
6.64762e-05
8.8999e-05
7.0508e-05
5.23078e-05
5.32139e-05
3.87432e-05
0.000194459
0.000149853
2.23898e-05
1.14882e-05
2.18333e-05
1.60178e-05
2.94342e-05
2.99443e-05
2.9535e-05
3.97237e-05
3.97813e-05
0.000120417
0.000155994
0.000201637
0.000124665
0.000162043
9.50363e-05
5.35413e-05
7.16943e-05
0.000260259
7.87875e-06
1.5747e-05
2.92448e-05
2.15119e-05
1.13152e-05
7.79961e-06
3.96657e-05
1.74733e-06
9.10886e-07
4.77314e-08
1.66198e-07
4.24863e-07
1.66211e-07
4.77361e-08
5.08874e-06
3.08168e-06
1.74397e-06
3.07595e-06
5.06334e-06
9.10394e-07
4.2484e-07
1.74311e-06
9.10332e-07
8.30156e-06
1.24411e-05
5.23126e-06
8.29795e-06
1.24111e-05
1.76188e-05
2.40389e-05
3.11925e-06
1.75177e-06
9.74339e-05
5.652e-05
7.451e-05
0.000199115
0.000251383
0.000252027
4.77376e-08
1.66223e-07
7.49495e-09
5.87807e-05
7.95993e-05
4.27263e-05
3.06031e-05
1.73063e-06
9.08286e-07
4.2467e-07
1.66217e-07
4.77378e-08
4.90844e-06
3.02413e-06
1.08477e-05
7.47085e-06
1.53934e-05
2.17299e-05
7.49497e-09
4.24844e-07
1.66211e-07
4.77357e-08
0.00251383
0.0044088
0.000899773
0.00489572
0.00570726
0.000602813
0.00144351
0.0032525
0.00668427
0.00586477
0.00681784
0.000688829
0.0010226
0.00433846
0.00646211
0.00758152
0.00677984
0.00752951
0.00725013
0.000747211
0.000715221
0.00113182
0.00364951
0.00748041
0.00832167
0.0072892
0.00829027
0.00773882
0.00775159
0.000817325
0.000857053
0.0019015
0.00526311
0.00698358
0.00816114
0.00877945
0.00863695
0.0078364
0.00829804
0.00877857
0.00807148
0.00816737
0.0080633
0.000825227
0.00237185
0.00452835
0.00768942
0.00854034
0.00849259
0.009008
0.00892962
0.00866102
0.00913996
0.00847282
0.00853909
0.0083865
0.00827036
0.0013649
0.00116647
0.00518989
0.00709324
0.00830072
0.0086562
0.00848862
0.00920891
0.00897956
0.00897475
0.00918786
0.00927886
0.00866619
0.00888472
0.00880618
0.00859493
0.00851202
0.00134527
0.00158842
0.00345905
0.00749608
0.00828804
0.00875345
0.00847349
0.00921137
0.00887752
0.00909554
0.00911017
0.00940066
0.00942226
0.00898034
0.00910931
0.00893592
0.008768
0.00864987
0.00125428
0.00254961
0.00147822
0.00485122
0.00814551
0.0067458
0.00817912
0.00854626
0.0082125
0.00930088
0.00882396
0.00901126
0.00933994
0.00950953
0.0094165
0.00938112
0.00922023
0.00911035
0.00895527
0.0087292
0.00121027
0.00274946
0.00291518
0.00804129
0.00776552
0.0079049
0.00836346
0.0079416
0.00920668
0.00866059
0.00903309
0.00962006
0.00947915
0.0095168
0.00944057
0.0092427
0.00897361
0.00901835
0.00893945
0.0014559
0.00172388
0.00431063
0.00792196
0.00773491
0.00762635
0.00782397
0.00846097
0.00808074
0.00791741
0.00766913
0.00920726
0.00865734
0.00886263
0.00969326
0.00957716
0.00938257
0.00966016
0.0096309
0.00949903
0.00921813
0.00911061
0.00884266
0.00139244
0.00303139
0.00188969
0.00687975
0.00770128
0.00779524
0.00731934
0.00746427
0.00821266
0.00797045
0.00756891
0.00741269
0.00904394
0.00842299
0.0088376
0.00974853
0.00960728
0.00946952
0.00972216
0.00966159
0.00945641
0.00937496
0.00906915
0.00889917
0.00158156
0.0018065
0.00362545
0.00677854
0.00740572
0.00756664
0.00723278
0.0070491
0.00820873
0.00770266
0.00742967
0.00707406
0.00896217
0.00841422
0.00860753
0.00979156
0.00971103
0.0094174
0.0097715
0.00961655
0.00955126
0.0093415
0.00906038
0.00883256
0.0020397
0.0017292
0.00518818
0.0073903
0.00710257
0.00725964
0.00690468
0.0067366
0.00796853
0.00770562
0.00714881
0.00681705
0.00864174
0.00904168
0.0081886
0.00982105
0.00971072
0.00957152
0.00925127
0.00980463
0.00975839
0.00970192
0.00950889
0.00936541
0.00902097
0.00885356
0.00185347
0.00240441
0.00492535
0.00725789
0.00678117
0.00703648
0.00705917
0.00645026
0.00798977
0.00747411
0.00707602
0.00689863
0.00647101
0.00842678
0.00893023
0.00817236
0.00982979
0.00978392
0.00956179
0.00916827
0.00984294
0.00978592
0.00968289
0.00952393
0.00932803
0.00895998
0.00871046
0.00187386
0.00257131
0.00650016
0.00721432
0.0064867
0.00664338
0.00671336
0.0062859
0.00629503
0.007753
0.00753033
0.00722893
0.00677091
0.00664929
0.00629591
0.00843583
0.00870657
0.00789394
0.00977829
0.00944899
0.00969295
0.00922361
0.00984187
0.0098352
0.00972746
0.00965366
0.00945828
0.0092373
0.00882246
0.0086215
0.00197695
0.00403984
0.00462712
0.00682886
0.00708675
0.00637063
0.00639722
0.00601347
0.00596411
0.00728753
0.00709648
0.00662069
0.00643251
0.00607902
0.00806042
0.00871692
0.00780941
0.00945203
0.00964603
0.00904814
0.00980131
0.00976553
0.00965916
0.00940699
0.00958907
0.00920236
0.00902487
0.00875908
0.00858943
0.0019279
0.00463853
0.00552964
0.00728786
0.00664198
0.00609888
0.0060908
0.00585265
0.00590295
0.0058292
0.00721042
0.00689026
0.00670267
0.00637497
0.00626311
0.00591553
0.00609492
0.00793508
0.00851919
0.00742145
0.00932779
0.00971022
0.00907981
0.00971959
0.00967398
0.00944636
0.00955033
0.00925272
0.00906466
0.00895194
0.00866121
0.00846388
0.00273812
0.00272587
0.0081999
0.00709876
0.00726299
0.0064947
0.00601222
0.00596557
0.00567197
0.00575701
0.00563081
0.00691672
0.00647392
0.00625348
0.00632023
0.00573201
0.00593481
0.00753454
0.00805484
0.00829661
0.00871345
0.00735828
0.00928995
0.00965663
0.00890701
0.00957576
0.00939704
0.00949774
0.00953117
0.00932861
0.00917327
0.00904241
0.00883934
0.0084134
0.00266102
0.00265828
0.0165237
0.0072552
0.00676128
0.00611215
0.00580561
0.00586017
0.00596201
0.00567078
0.00558283
0.00577602
0.00556862
0.00561092
0.00673844
0.00645524
0.00602789
0.00609904
0.00575459
0.00743187
0.00791111
0.00817949
0.00856766
0.00701905
0.00908377
0.00948268
0.00944675
0.00937177
0.00943251
0.00941714
0.00924751
0.009147
0.00899422
0.00888559
0.00856528
0.00834912
0.00313753
0.00301982
0.00838434
0.00712099
0.00673143
0.00647805
0.00611164
0.00582181
0.00594072
0.00592907
0.00562247
0.00554898
0.0057456
0.00550211
0.00548801
0.00676839
0.00626604
0.00594129
0.00606047
0.00561709
0.00703932
0.00762867
0.00825713
0.00861783
0.00896425
0.00925744
0.00926551
0.00930384
0.0092052
0.00918172
0.00904517
0.00880356
0.0089814
0.00854434
0.00839671
0.00823844
0.00278541
0.00279125
0.00484327
0.0126914
0.006903
0.00648007
0.00610615
0.00579369
0.00610835
0.00609824
0.00569498
0.00560641
0.00551071
0.00546591
0.00545071
0.00646805
0.00627914
0.00574256
0.00586154
0.0054988
0.00683763
0.00752943
0.00808212
0.00843759
0.0088015
0.00907767
0.00917395
0.00920161
0.00911585
0.00910187
0.00880998
0.00892485
0.00869923
0.00855502
0.00834917
0.00823215
0.00381555
0.00278571
0.00587132
0.0102116
0.0070129
0.00619336
0.00612318
0.00616619
0.0059979
0.00641058
0.00616905
0.00638572
0.00576149
0.00570942
0.00552433
0.00541451
0.00536621
0.0064227
0.00609981
0.00566757
0.00586864
0.0054472
0.00686504
0.0065577
0.00775923
0.00709714
0.00823867
0.00854371
0.00871485
0.00889668
0.00899776
0.00905233
0.00907756
0.00905866
0.0088523
0.00890392
0.00868038
0.00852061
0.00830269
0.00814951
0.00329667
0.00385346
0.00697025
0.0177238
0.00652817
0.00625519
0.00624014
0.00622831
0.00610702
0.00664629
0.00651911
0.00676104
0.00596267
0.00573956
0.00562942
0.00548036
0.00536947
0.00533144
0.00613403
0.00551144
0.00566695
0.00541873
0.0065323
0.00765919
0.00707511
0.00812978
0.00836249
0.00885668
0.00885668
0.00890504
0.00898269
0.00894558
0.00881569
0.00881662
0.00890593
0.00875589
0.0086
0.00843001
0.00822765
0.0081049
0.00324812
0.00427942
0.00733718
0.0241537
0.00680219
0.00629574
0.00627126
0.00657792
0.00642067
0.00708398
0.00664872
0.00723302
0.00618397
0.00598517
0.00575247
0.0055141
0.00536603
0.00531283
0.00600204
0.00546531
0.00550463
0.00575784
0.00531269
0.00634331
0.00730953
0.0078686
0.00677729
0.00839155
0.008624
0.00864179
0.00875175
0.00880216
0.00873332
0.00872856
0.00869629
0.00855306
0.0084412
0.00835639
0.00819194
0.00808013
0.00595264
0.00344759
0.00629012
0.0066906
0.00667056
0.00663795
0.00717689
0.00647375
0.00742239
0.00744565
0.00715704
0.00814475
0.00619665
0.0060249
0.00568636
0.00545096
0.00533467
0.00527592
0.0060524
0.00534858
0.00538925
0.00566554
0.0063304
0.00723422
0.00773714
0.00649417
0.006908
0.00818315
0.00847909
0.00850878
0.0086416
0.00865583
0.00864327
0.00865874
0.00855283
0.00850248
0.00839138
0.00832839
0.00810955
0.00796618
0.00601752
0.00338083
0.0070063
0.00712609
0.00678578
0.00695313
0.00694893
0.00716602
0.00813621
0.00671659
0.00815886
0.00822145
0.00744314
0.00879759
0.00661083
0.0061925
0.00580148
0.00551012
0.00531996
0.00526452
0.00587468
0.00529093
0.00536886
0.00549922
0.00597961
0.00740802
0.00790623
0.00634045
0.00676634
0.0082616
0.00831746
0.00838986
0.00847995
0.00851203
0.00857514
0.00845072
0.00833415
0.00821178
0.00803427
0.00792957
0.0130193
0.00418589
0.00446289
0.00746541
0.00702741
0.00817974
0.0077374
0.00801968
0.00919135
0.00715279
0.00861141
0.00876531
0.00835717
0.00984547
0.00679154
0.00658733
0.00607176
0.00572432
0.00543413
0.00521814
0.00521867
0.00524566
0.00545147
0.00589438
0.00732144
0.00782516
0.00647315
0.00609119
0.00699763
0.00808407
0.00808964
0.00826498
0.0082539
0.0084447
0.00830861
0.00841723
0.00847465
0.00841866
0.00827758
0.00835596
0.00815319
0.00796031
0.00782771
0.0151889
0.00406665
0.00437079
0.00562288
0.00722906
0.0080234
0.00693846
0.00863828
0.00870755
0.00904627
0.0116828
0.00760661
0.00990368
0.0100355
0.00871744
0.0109411
0.00739447
0.00683642
0.00621003
0.00593022
0.00544914
0.00518458
0.00518453
0.00518105
0.00531286
0.00551677
0.00568286
0.00759949
0.00627477
0.00603489
0.00692284
0.00790762
0.00799132
0.00795906
0.008277
0.00816714
0.00840135
0.00827264
0.00840917
0.00826032
0.00828665
0.0081561
0.00804232
0.00789077
0.00779762
0.00991006
0.00489418
0.00602601
0.00733102
0.00763147
0.0114227
0.0104209
0.0105999
0.012488
0.0125056
0.00832155
0.0106579
0.0112232
0.00933725
0.0133497
0.00779144
0.00741994
0.00658071
0.00608284
0.00596831
0.00566324
0.00532278
0.00523264
0.00514097
0.00512472
0.00528319
0.00539479
0.00579271
0.00762104
0.00630982
0.00714733
0.00660388
0.0078579
0.00782261
0.0079512
0.00823341
0.00813765
0.00826549
0.00818495
0.00822505
0.00810172
0.00815716
0.00799145
0.00782246
0.00770031
0.0180976
0.00453377
0.0071447
0.00475357
0.00791118
0.0090517
0.0138455
0.011897
0.012427
0.0170687
0.0163822
0.0092015
0.0129983
0.0132144
0.0107206
0.0163116
0.00864992
0.00766652
0.00669225
0.00615057
0.00590458
0.00567603
0.00536704
0.00526045
0.0051266
0.00507586
0.0051946
0.00536796
0.00569005
0.00742212
0.0060922
0.00699089
0.00668797
0.00755517
0.0075521
0.00780223
0.00816517
0.00793167
0.00808075
0.00809127
0.00807477
0.00806552
0.00800813
0.00790573
0.0077689
0.00763754
0.00878127
0.00692962
0.00511458
0.00890574
0.00818592
0.0189558
0.0165329
0.0170305
0.0227649
0.020968
0.00931172
0.014412
0.0156766
0.0121693
0.0201269
0.00928652
0.00728058
0.00837751
0.00639139
0.00693796
0.00613558
0.00548881
0.00581354
0.00520852
0.00508333
0.00504282
0.0052165
0.00547238
0.00581576
0.00618383
0.00714848
0.0064916
0.0074251
0.00737263
0.00748027
0.00794143
0.00781804
0.00794443
0.00792484
0.00801801
0.00797582
0.00795403
0.00786726
0.00774062
0.00767241
0.00759695
0.0112631
0.00794874
0.00519243
0.0106114
0.00800559
0.00952433
0.0242233
0.0214008
0.0185207
0.0250911
0.0298221
0.0273975
0.010633
0.0187824
0.0177008
0.0148674
0.0252587
0.00904648
0.0106439
0.00767594
0.00840856
0.00651381
0.00684926
0.00602675
0.00638876
0.00550817
0.00572766
0.00523641
0.00506869
0.00503134
0.00503015
0.00513243
0.00544972
0.00568862
0.00602762
0.00708657
0.00655949
0.00732243
0.00784213
0.00749809
0.00781878
0.00790572
0.00792086
0.00788671
0.00788857
0.00782773
0.00778272
0.00773925
0.0076004
0.00749256
0.00785179
0.0342036
0.00707358
0.00510316
0.0154355
0.00838121
0.0106312
0.0352421
0.0307801
0.0285622
0.0340235
0.036523
0.0341872
0.0338324
0.020493
0.0212968
0.0160146
0.0320813
0.0102102
0.0112753
0.00753395
0.00907186
0.00708639
0.00619007
0.00657171
0.00537822
0.00582978
0.00514621
0.00497659
0.00500836
0.00516217
0.0053171
0.00577675
0.00611474
0.00685764
0.00636053
0.00701314
0.00755137
0.00741382
0.00761394
0.00774763
0.00785227
0.00773581
0.00781863
0.00781667
0.00773734
0.00765274
0.00754289
0.00742695
0.00891104
0.0811513
0.00806355
0.00677624
0.0210785
0.00822592
0.00977939
0.016773
0.0421689
0.0301451
0.0377081
0.0454174
0.0435267
0.042935
0.0387001
0.0254607
0.0246089
0.0203359
0.0150656
0.0366995
0.0314049
0.0103797
0.0137739
0.00792675
0.00888696
0.00696015
0.00648831
0.00610348
0.00545974
0.00574717
0.00517326
0.00495369
0.00499604
0.00509194
0.00508863
0.00533183
0.00568709
0.00594154
0.00682075
0.00653964
0.00686424
0.00746565
0.00713342
0.00758567
0.0077163
0.00758382
0.00771763
0.00774175
0.00769091
0.00761295
0.00750922
0.00743527
0.00737279
0.00939973
0.026972
0.00781623
0.00679185
0.00882897
0.0098175
0.0233419
0.048623
0.0398523
0.047102
0.0530729
0.0468043
0.04799
0.0435476
0.0292783
0.0283956
0.0215529
0.0188313
0.0404728
0.036697
0.0122235
0.0145412
0.00775508
0.00965071
0.00720292
0.00693703
0.00623092
0.00535823
0.00595533
0.0049251
0.00496685
0.00510281
0.00519327
0.00550613
0.00596462
0.00651208
0.00690815
0.00716511
0.00743315
0.00757534
0.00750784
0.00759735
0.00763613
0.00759656
0.00758146
0.00752547
0.00748044
0.0073621
0.00728039
1.21754e-07
0.021002
0.00854327
0.0084219
0.00885054
0.0152485
0.0362895
0.0578386
0.0507071
0.0548892
0.0519608
0.059633
0.054396
0.0564773
0.0470669
0.032439
0.0313026
0.0270044
0.0205103
0.0448706
0.0394858
0.0364626
0.0125809
0.0181045
0.00809195
0.0110868
0.00901786
0.00713731
0.0064963
0.00540939
0.00588758
0.00486792
0.0049912
0.00505287
0.0048952
0.00524751
0.00517498
0.00549026
0.00571881
0.00627542
1.39406e-07
0.00660431
0.00700654
0.00725909
0.00746234
0.007222
0.00755844
0.0075422
0.00755188
0.00755108
0.00747414
0.00738849
0.00723465
9.30414e-08
0.0330707
0.00852468
0.0215963
0.00750284
0.0094341
0.0163
0.0442427
0.0666858
0.0585353
0.0653233
0.063829
0.0715593
0.0586325
0.0572192
0.0643244
0.0521215
0.0344945
0.0281658
0.0252625
0.0475815
0.0445013
0.0379544
0.0153625
0.0184281
0.00781956
0.0118443
0.00946421
0.0069535
0.00649476
0.00558897
0.0061588
0.00484886
0.00497987
0.00503587
0.00488948
0.0052485
0.0053133
0.00571088
0.00629796
0.00667278
0.00707769
0.00715372
0.00727228
0.00709984
0.0073832
0.0074175
0.00742533
0.00748444
0.00742354
0.00732848
0.00727709
0.00714363
0.00916286
0.0336281
0.0103243
0.0124439
0.00899874
0.0224813
0.0495805
0.0583621
0.0799159
0.0699519
0.0750208
0.072941
0.0844741
0.069988
0.0666417
0.0742869
0.0563656
0.0331122
0.0284824
0.0526504
0.0467052
0.041036
0.0158426
0.0217978
0.00843952
0.0138579
0.0104935
0.00750463
0.00675454
0.00560472
0.00609503
0.0048713
0.004839
0.00507083
0.00494138
0.00511978
0.00541956
0.00528316
0.00546236
0.00600839
0.00650677
0.00694425
0.00722176
0.00690113
0.00736162
0.00730077
0.00730244
0.00743561
0.00736502
0.00730829
0.007239
0.00713164
0.00704767
0.00952105
0.0300829
0.00962091
0.0137317
0.0110165
0.0181941
0.0398135
0.0645268
0.0686456
0.0867915
0.0757781
0.0898052
0.0933046
0.0987975
0.076688
0.0737882
0.0660076
0.0333568
0.0276924
0.0538688
0.0457655
0.041621
0.0195151
0.0257399
0.00827179
0.0142879
0.0107758
0.00731167
0.00665455
0.00579834
0.00637164
0.00487013
0.00481402
0.00502275
0.00495095
0.00508028
0.00542372
0.00540083
0.00601231
0.00670691
0.00621464
0.0070332
0.00680816
0.00671286
0.00721757
0.00723941
0.00718344
0.00734831
0.00730491
0.00723989
0.00723093
0.00715322
0.00706559
0.00700202
0.0101519
0.0689174
0.0101669
0.0111238
0.0227542
0.0532928
0.073304
0.0925287
0.0949344
0.103884
0.100109
0.109513
0.110938
0.0899353
0.0829687
0.0715829
0.0365967
0.0303595
0.057457
0.0511517
0.0467297
0.0396191
0.0206002
0.0285169
0.00890769
0.0178116
0.0124475
0.00994759
0.00753268
0.00686609
0.00582035
0.00630744
0.00479229
0.00477243
0.00488355
0.00508281
0.005172
0.00563598
0.00528833
0.0054835
0.00584661
0.00660624
0.0060848
0.00707134
0.0068547
0.00661088
0.00700583
0.00698557
0.00723893
0.00721561
0.00714029
0.007184
0.00711133
0.0070149
0.00694953
0.0107153
0.00999011
0.0833508
0.00894318
0.0202385
0.0136637
0.043247
0.0199676
0.066811
0.0959101
0.106584
0.108753
0.120742
0.120619
0.13526
0.109804
0.125232
0.0997618
0.0804451
0.096045
0.0701877
0.0346255
0.0552914
0.0639939
0.0514171
0.0485649
0.0410561
0.0253334
0.0284755
0.00848477
0.018459
0.0126982
0.0109143
0.00778279
0.00660898
0.00607681
0.00477157
0.00474993
0.00490385
0.00502497
0.00515157
0.00571487
0.00536868
0.00566633
0.00532378
0.00629362
0.006093
0.00691694
0.0066492
0.00646687
0.0068884
0.00689519
0.00716314
0.00712705
0.00699517
0.0071143
0.00709496
0.00704361
0.00693273
0.00685565
0.010917
0.0107076
0.0933459
0.0109403
0.0267513
0.0132559
0.0614515
0.0237088
0.0742792
0.109716
0.116535
0.141348
0.132524
0.143527
0.149069
0.15485
0.130395
0.111298
0.0892631
0.106447
0.078269
0.0380839
0.0641656
0.0599199
0.0433842
0.0554289
0.0267504
0.0319262
0.00882009
0.0165813
0.0214799
0.0143765
0.0109317
0.00750327
0.00660305
0.00605354
0.00478058
0.00472721
0.0048294
0.00503483
0.0052422
0.00491164
0.0055573
0.00569554
0.00537416
0.00629601
0.00587316
0.00671807
0.00645929
0.00638747
0.00659653
0.00701344
0.00668667
0.00697042
0.00682484
0.00702721
0.00707942
0.00699629
0.00693431
0.0068662
0.00681064
0.0119203
0.0110348
0.505809
0.0206934
0.0105509
0.120901
0.0173796
0.0411501
0.0699242
0.0966788
0.142134
0.133676
0.161106
0.160586
0.171706
0.182134
0.180583
0.140017
0.121306
0.101787
0.0853709
0.11763
0.0733849
0.0379333
0.0652661
0.0611611
0.0430196
0.0571117
0.0304677
0.0250543
0.03595
0.00997687
0.00803289
0.0198772
0.0136214
0.00690675
0.00624193
0.00470891
0.00470816
0.00485379
0.00509511
0.00531117
0.00495058
0.00554849
0.00554581
0.00524159
0.00609151
0.00587073
0.00653567
0.00625906
0.00615122
0.00644385
0.00648903
0.00667163
0.00682666
0.00666098
0.00677036
0.0069354
0.00699647
0.00694109
0.00695355
0.00688935
0.00681368
0.00671762
0.0119646
0.0117064
0.0387255
0.0115054
0.47005
0.017998
0.0549397
0.0838932
0.106296
0.163263
0.145149
0.195582
0.180012
0.205545
0.212537
0.208332
0.163829
0.137151
0.110583
0.0899988
0.126237
0.0751334
0.0694667
0.0438031
0.065511
0.0541953
0.0316839
0.0279817
0.0385373
0.0103144
0.00794051
0.0203322
0.0145861
0.00668596
0.00621236
0.00472184
0.0046739
0.00476276
0.00499672
0.00517734
0.00483262
0.0056055
0.00566782
0.00526984
0.00628067
0.0060228
0.00616053
0.00627652
0.00649909
0.00649628
0.00665286
0.00657312
0.00677817
0.00684147
0.00683283
0.00685094
0.00681076
0.00676727
0.00667522
0.0143995
0.0121054
0.0528063
0.011264
0.0244246
0.975139
0.0297285
0.0726257
0.0871936
0.135266
0.198042
0.171345
0.218754
0.208841
0.227009
0.249048
0.246603
0.18493
0.151883
0.120699
0.104099
0.0845353
0.142887
0.0712828
0.0490655
0.0404346
0.0675109
0.0611445
0.035737
0.0260753
0.00966595
0.0112211
0.0073082
0.00874166
0.0181203
0.0132765
0.00673228
0.00584365
0.00467178
0.00462857
0.00474341
0.00510647
0.00518828
0.00486963
0.00545425
0.00561507
0.00542023
0.00604789
0.00580784
0.00608914
0.00631457
0.00631125
0.00643727
0.00674679
0.00678125
0.00680816
0.00674383
0.0067183
0.00667421
0.00661797
0.0141204
0.0130193
0.235144
0.0115102
0.0485741
0.0356976
0.0866996
0.119447
0.153376
0.229588
0.184835
0.258883
0.221643
0.246217
0.284727
0.27424
0.211398
0.170501
0.127198
0.110347
0.0889961
0.15442
0.0825628
0.0483533
0.0421211
0.0743526
0.0607735
0.0368378
0.0280598
0.0107646
0.00740395
0.00862067
0.01884
0.0157803
0.00635336
0.00598137
0.00474243
0.00461021
0.00464023
0.00480883
0.00508982
0.00529006
0.00496995
0.0054557
0.00545473
0.00580545
0.00570985
0.00587938
0.00612466
0.00629881
0.00616243
0.00644116
0.0065904
0.00663192
0.00670358
0.00670001
0.00667806
0.00665728
0.00659253
0.00653195
0.0213099
0.0134309
0.409069
0.0231762
0.0118848
0.304566
0.0578766
0.107883
0.125815
0.199576
0.279279
0.203084
0.289965
0.248968
0.279095
0.323344
0.321973
0.228119
0.184601
0.120047
0.144553
0.10431
0.176991
0.0846728
0.053579
0.0409208
0.0745031
0.0677663
0.0359015
0.0318898
0.025042
0.0109131
0.00807793
0.00692878
0.00959228
0.0210187
0.0154815
0.00649778
0.00576345
0.00473165
0.00456149
0.00463978
0.00474804
0.00495816
0.00530259
0.00518785
0.00497829
0.00550728
0.00528419
0.0056085
0.00590218
0.00563375
0.00610836
0.00598908
0.00625409
0.00652482
0.00658309
0.00657372
0.00659231
0.00659638
0.00656855
0.00651698
0.00646687
0.0232288
0.013324
0.0283363
0.0117276
0.386474
0.0732116
0.121811
0.156604
0.220612
0.31304
0.221233
0.204017
0.336135
0.264107
0.321165
0.341867
0.366051
0.344566
0.253752
0.125263
0.152449
0.115047
0.186808
0.0952244
0.051479
0.0442557
0.0816015
0.0676573
0.0392079
0.0321565
0.0291304
0.0137113
0.00820827
0.00700669
0.00948665
0.019173
0.00618284
0.00588507
0.00488164
0.00464029
0.00455834
0.0045278
0.00457218
0.00480336
0.00503991
0.00534341
0.00535163
0.00518846
0.00570854
0.00541239
0.00605236
0.00577292
0.00632548
0.00648738
0.00652932
0.00655496
0.00650951
0.00643165
0.00638156
0.0480513
0.023989
0.0172637
0.0156296
0.0791469
2.75388
0.103839
0.146536
0.205313
0.293385
0.38084
0.330817
0.239479
0.221834
0.382554
0.302605
0.34914
0.394423
0.368359
0.406656
0.403999
0.272643
0.14046
0.172533
0.116383
0.2079
0.0920274
0.108691
0.0551627
0.0418434
0.0783976
0.0623275
0.0361983
0.0295384
0.0146925
0.00755007
0.0066667
0.00967182
0.0192321
0.00619107
0.00571625
0.00495066
0.00466007
0.00451922
0.00451023
0.00457739
0.00494872
0.00476082
0.00518839
0.0052945
0.00546361
0.00522581
0.00588344
0.00561756
0.00621212
0.00634325
0.00640537
0.00644351
0.00644768
0.00638525
0.00634807
0.00629979
0.0406085
0.0183053
0.0198094
0.0639262
0.120823
0.170782
0.240821
0.292827
0.438894
0.402796
0.258295
0.224053
0.429243
0.325465
0.371527
0.430411
0.414512
0.433777
0.309306
0.146389
0.182114
0.135185
0.20947
0.105532
0.116712
0.0505522
0.043819
0.0797894
0.0631496
0.0357087
0.0269152
0.0139079
0.00751781
0.00628967
0.00687019
0.0113848
0.00849769
0.022477
0.00584074
0.00548203
0.00483329
0.00455556
0.00450299
0.00448644
0.00451818
0.00466602
0.00506192
0.00488917
0.00502915
0.00528024
0.00584001
0.00566584
0.00537576
0.00601173
0.0062764
0.00630932
0.00636708
0.00640058
0.00637344
0.00629605
0.00630858
0.00627977
0.00624269
0.0516913
0.0298187
0.0179613
0.0184992
0.118548
0.162773
0.123817
0.229443
0.33811
0.499786
0.450687
0.269071
0.24915
0.484632
0.359075
0.409707
0.485522
0.429562
0.475071
0.326668
0.171778
0.140354
0.23233
0.108067
0.127457
0.0548669
0.0412551
0.0895479
0.0698197
0.0370463
0.02994
0.0167006
0.00769049
0.00606851
0.00667078
0.0112327
0.00863955
0.0206244
0.00568457
0.00537087
0.00484627
0.00455321
0.00445723
0.00445194
0.00456805
0.00466784
0.0050249
0.00498065
0.00499434
0.00510683
0.00566363
0.00549708
0.00529459
0.00595857
0.00611153
0.00617257
0.00624239
0.00624117
0.00623145
0.00620147
0.0062553
0.00620426
0.006156
0.0818874
0.0363065
0.0182743
0.0204626
0.163055
0.194127
0.16323
0.267719
0.425086
0.325272
0.519992
0.552219
0.537512
0.305085
0.256446
0.531733
0.378266
0.44366
0.521094
0.503338
0.478183
0.504339
0.35552
0.179853
0.160846
0.231676
0.126796
0.103609
0.0516455
0.0437391
0.0867648
0.0691177
0.0348613
0.0271979
0.0158087
0.00714581
0.00629068
0.00579598
0.0131959
0.00962667
0.007818
0.0233334
0.00549729
0.00514167
0.00464148
0.00445829
0.00443571
0.00452432
0.00478762
0.00493458
0.00475227
0.00552841
0.00558249
0.00513998
0.00577748
0.00612422
0.00617107
0.00615663
0.00607318
0.00617963
0.00616208
0.00612725
0.00608975
0.105082
0.0327225
0.0773166
0.0178379
0.0229813
0.0178293
0.0496949
0.570887
0.198919
0.258355
0.151555
0.476124
0.362572
0.595421
0.627986
0.604113
0.320288
0.303198
0.598729
0.415606
0.491103
0.443844
0.592068
0.569154
0.573393
0.359302
0.202547
0.166556
0.262436
0.134933
0.114647
0.0542188
0.0405017
0.0971944
0.0773234
0.0617989
0.0368025
0.0289746
0.0196541
0.00720768
0.00617404
0.00563296
0.0128193
0.00946904
0.00780806
0.00541244
0.00505832
0.00461377
0.00440944
0.00439196
0.00457544
0.00486269
0.00499538
0.00471627
0.00542142
0.00559604
0.00513836
0.00572628
0.00598662
0.00601088
0.00598067
0.00592032
0.00608138
0.00613772
0.00610483
0.00604348
0.00600433
0.0400685
0.116625
0.0183696
0.0242046
0.0240478
0.0503112
1.75892
0.259313
0.308564
0.15616
0.571843
0.444502
0.349362
0.620842
0.63546
0.688422
0.62643
0.697154
0.323721
0.635949
0.428945
0.523834
0.500892
0.606739
0.599261
0.384592
0.205787
0.188798
0.154932
0.29602
0.249931
0.126397
0.109927
0.0481805
0.0421988
0.0947372
0.075671
0.0616863
0.0341481
0.0266931
0.0189978
0.00679683
0.00638717
0.00583616
0.00560498
0.015076
0.0105637
0.00831788
0.00708174
0.00519482
0.00486954
0.00445845
0.00440078
0.00437069
0.00437159
0.00452219
0.00471175
0.00483095
0.00453112
0.0052853
0.00542323
0.00498564
0.00581979
0.00549178
0.00587006
0.00584566
0.00589385
0.00573959
0.00595879
0.0060253
0.00602426
0.00598713
0.00596529
0.00593505
0.0306044
0.0774552
0.0209046
0.0209471
0.120642
0.297967
0.202394
0.615467
0.471773
0.402835
0.708631
0.708397
0.750071
0.717975
0.771961
0.374999
0.318873
0.694842
0.472754
0.568898
0.510616
0.678449
0.653532
0.226422
0.198221
0.158046
0.319568
0.272227
0.137173
0.121796
0.0495545
0.0390583
0.0837926
0.104634
0.0680271
0.0558922
0.0359079
0.0221621
0.0292781
0.00613017
0.00578171
0.00534498
0.0138406
0.0101327
0.00811272
0.00687365
0.00510399
0.00487313
0.00443775
0.0043453
0.00435042
0.00433807
0.00443303
0.00461292
0.00479947
0.00447984
0.00525369
0.00495669
0.00570416
0.00540723
0.0056359
0.00567982
0.00557933
0.005713
0.00582126
0.00595742
0.00595485
0.00592421
0.00588541
0.00585341
0.0459077
0.104819
0.0286205
0.0215235
0.0976511
0.293593
0.396254
0.211042
0.549887
0.712082
0.744946
0.82604
0.788662
0.764442
0.84838
0.407635
0.372306
0.722726
0.484446
0.605539
0.554317
0.705308
0.681151
0.660316
0.227616
0.190095
0.215864
0.172956
0.372638
0.30603
0.255376
0.133191
0.117796
0.0450172
0.0406377
0.0808595
0.10025
0.0670627
0.055913
0.0334054
0.020931
0.0254313
0.00625061
0.00550869
0.00531625
0.00513542
0.0110768
0.0152002
0.00877793
0.00725712
0.00476887
0.00433388
0.00431713
0.00430402
0.0044826
0.00458087
0.00474012
0.00455628
0.00432233
0.0050965
0.00552289
0.00520923
0.00543475
0.00538855
0.0055447
0.00572823
0.00579119
0.00581639
0.00582524
0.00582048
0.00581149
0.00578008
0.0386952
0.161794
0.026009
0.024711
0.0230488
0.290046
0.362968
0.480445
0.280081
0.579115
0.760517
0.818338
0.881409
0.873916
0.859773