/*--------------------------------*- C++ -*----------------------------------*\
| =========                 |                                                 |
| \\      /  F ield         | OpenFOAM: The Open Source CFD Toolbox           |
|  \\    /   O peration     | Version:  v1912                                 |
|   \\  /    A nd           | Website:  www.openfoam.com                      |
|    \\/     M anipulation  |                                                 |
\*---------------------------------------------------------------------------*/
FoamFile
{
    version     2.0;
    format      ascii;
    class       volVectorField;
    location    "10000";
    object      U;
}
// * * * * * * * * * * * * * * * * * * * * * * * * * * * * * * * * * * * * * //

dimensions      [0 1 -1 0 0 0 0];


internalField   nonuniform List<vector> 
71770
(
(0.185436 0.00833165 -2.04831e-23)
(0.191291 0.00649017 3.05213e-23)
(0.201681 0.00400747 -1.03891e-17)
(0.221573 0.00116763 -2.46966e-18)
(0.234972 0.000618939 1.10682e-18)
(0.236353 0.000511923 0)
(0.238559 0.000399083 0)
(0.240339 0.000269846 4.40736e-19)
(0.237685 0.000125049 -1.54321e-24)
(0.234118 -0.00189753 -3.18157e-18)
(0.26217 -0.00950527 1.23668e-17)
(0.317388 -0.0168457 8.81237e-18)
(0.182741 0.00979592 -2.17495e-17)
(0.185131 0.0115112 -4.37573e-17)
(0.182731 0.0108337 2.1817e-17)
(17.8396 1.05399 1.37341e-16)
(16.1349 0.95391 5.90968e-21)
(1.08052 0.0671578 -1.75583e-22)
(1.66607 0.103526 -2.0942e-22)
(3.20976 0.199327 -1.58134e-16)
(2.36817 0.147111 1.31894e-16)
(0.592241 0.0368177 0)
(0.584653 0.0346603 -3.80794e-17)
(4.16864 0.246996 9.44017e-17)
(10.3159 0.610686 -3.31558e-16)
(8.44204 0.499894 3.04042e-16)
(12.3057 0.728239 3.38312e-16)
(6.78122 0.401642 -1.32597e-16)
(5.36193 0.317645 -1.12533e-16)
(14.2781 0.844599 -3.24911e-16)
(1.06683 0.063241 -4.56921e-17)
(1.64527 0.0975213 1.09644e-16)
(2.33911 0.138633 0)
(3.17123 0.187927 -1.20484e-21)
(30.5522 -0.17861 0)
(22.0757 1.18452 5.09913e-20)
(20.7637 1.11436 0)
(21.0142 0.740147 2.66071e-20)
(22.3093 0.789864 0)
(23.5171 0.83736 4.54625e-20)
(24.6499 0.883219 8.59096e-17)
(22.6892 0.515317 0)
(23.8763 0.552483 2.08573e-20)
(24.9916 0.590091 4.06288e-17)
(25.6928 0.266357 0)
(21.4159 0.478101 5.14386e-17)
(25.7166 0.927998 -1.59811e-16)
(26.0452 0.628637 -3.78952e-17)
(26.7112 0.298864 -8.70152e-18)
(17.7897 0.955115 -1.3587e-16)
(16.0933 0.864084 1.48849e-16)
(19.3408 1.03823 0)
(17.8587 0.810881 -1.33422e-16)
(19.3982 0.881977 1.21648e-16)
(19.6144 0.687532 2.90629e-20)
(20.8125 0.947604 -2.70355e-20)
(22.1207 1.00867 1.02812e-16)
(23.3381 1.06595 -9.54892e-17)
(24.4759 1.12013 0)
(18.0883 0.631239 -1.29952e-16)
(20.0367 0.440303 -1.12615e-16)
(18.5275 0.401337 1.24111e-16)
(24.6151 0.237084 -1.01341e-17)
(23.4658 0.210594 1.09483e-17)
(22.2274 0.1865 2.76803e-21)
(26.6379 0.0835854 1.9664e-18)
(8.43386 0.452581 -4.62842e-21)
(10.3028 0.552974 1.64943e-16)
(12.285 0.659482 -1.67994e-16)
(12.3804 0.560027 -2.02472e-20)
(10.3964 0.469774 0)
(14.2471 0.764922 -3.92909e-20)
(14.3379 0.649348 1.94566e-20)
(14.5813 0.504955 9.35837e-21)
(29.0738 0.180062 0)
(29.599 0.139763 0)
(30.0514 0.0957228 -1.43464e-18)
(30.3861 0.0376782 1.37169e-21)
(16.1744 0.733442 -1.79427e-20)
(16.4139 0.570498 1.42936e-16)
(16.8633 0.360616 -6.84477e-17)
(28.4482 0.234821 -1.47812e-20)
(25.4862 0.151123 4.64545e-21)
(24.361 0.129831 0)
(26.5326 0.175492 0)
(24.9999 0.0946031 -2.15325e-21)
(26.1384 0.111022 -1.97323e-21)
(27.5162 0.20326 -3.62703e-21)
(28.1578 0.153383 3.62314e-21)
(27.1844 0.130496 3.63257e-21)
(27.7036 0.0989333 -1.9617e-21)
(28.6847 0.117528 0)
(28.126 0.0642297 -2.51489e-21)
(29.127 0.0782584 1.55736e-18)
(29.4363 0.0275036 4.14925e-21)
(7.02402 0.240632 0)
(13.0553 0.273269 -7.84161e-17)
(2.33855 0.125405 6.55612e-17)
(4.2189 0.19005 7.15961e-22)
(5.42246 0.244421 0)
(5.56635 0.19034 0)
(7.33442 0.150114 -6.28953e-17)
(9.08243 0.187083 -7.17581e-17)
(11.0265 0.228815 7.76306e-17)
(4.33561 0.148012 0)
(15.031 0.317788 7.45679e-17)
(1.64502 0.0882046 -1.09306e-16)
(1.0819 0.0486408 -1.72441e-22)
(0.59311 0.0266565 -3.57513e-23)
(1.66786 0.0750161 0)
(2.37013 0.106653 0)
(3.21154 0.144589 5.98061e-22)
(1.11503 0.037889 1.27844e-22)
(1.71799 0.0584289 -5.35872e-17)
(2.4398 0.0830648 6.42812e-17)
(3.3034 0.11261 -2.90215e-22)
(21.7821 0.095254 -5.56693e-22)
(20.781 0.0596135 -7.70674e-22)
(20.2717 0.0812829 6.53167e-18)
(19.0201 0.0511659 0)
(19.3006 0.0394529 0)
(18.575 0.0690051 0)
(25.4673 0.0710605 -4.28279e-18)
(21.1072 0.0455634 6.60016e-22)
(22.3481 0.0693511 0)
(23.7453 0.0808569 -1.27351e-21)
(22.724 0.0525563 0)
(24.1701 0.0608867 2.34093e-18)
(11.7829 0.0734801 1.83122e-17)
(13.8711 0.0895889 -1.84474e-17)
(15.8815 0.10684 -1.01367e-21)
(14.5969 0.0480995 1.64719e-17)
(16.6761 0.058035 -7.83571e-18)
(17.0547 0.0435865 0)
(14.9099 0.0365984 7.5625e-18)
(7.91564 0.0467041 1.49177e-17)
(9.7574 0.0590599 -1.69811e-17)
(4.54437 0.0920314 4.49262e-17)
(5.82442 0.118541 5.35049e-17)
(4.93877 0.0279556 7.72246e-23)
(6.30995 0.0364151 -4.89724e-22)
(12.4262 0.0391453 -1.6347e-17)
(12.6754 0.0301484 -7.51315e-18)
(17.2956 0.0338678 -3.31013e-18)
(17.7266 0.124957 4.02003e-21)
(15.1162 0.0286026 3.47475e-18)
(12.8485 0.0236477 -2.19449e-22)
(0.611553 0.0207644 3.57512e-23)
(0.644306 0.0128313 2.32824e-23)
(1.8072 0.0361824 -2.61054e-17)
(2.56395 0.0515029 -3.13137e-17)
(3.46738 0.0699154 4.37563e-22)
(1.17391 0.0234358 4.35164e-17)
(0.706919 0.00375466 7.4048e-24)
(2.79995 0.0153613 -7.44313e-18)
(1.36372 0.00364469 0)
(2.96746 0.0081014 3.33561e-18)
(2.09586 0.00565578 1.1222e-23)
(0.749571 0.00198752 -1.77269e-24)
(1.97717 0.0107126 -1.12222e-23)
(1.28629 0.0068948 5.17214e-18)
(3.77823 0.0210307 8.92202e-18)
(5.23105 0.0147304 -9.56706e-18)
(4.00324 0.0110835 -7.56135e-24)
(6.77627 0.0152279 -5.25952e-18)
(6.67995 0.0191998 1.08262e-22)
(8.37316 0.0246706 1.33545e-17)
(10.3085 0.0313015 -2.90678e-22)
(8.51053 0.0193934 7.75905e-24)
(10.4978 0.024369 6.99297e-18)
(6.8577 0.0119645 0)
(8.61846 0.0152437 -4.85186e-23)
(10.6372 0.0191473 -9.51129e-23)
(2.11366 0.00461606 5.14155e-18)
(2.99606 0.00657241 -1.41082e-23)
(5.29692 0.0117801 -3.51124e-23)
(4.04726 0.00893083 -3.69604e-18)
(0.754595 0.00163785 1.78581e-18)
(1.37399 0.0029903 -4.28551e-18)
(1.38748 0.00233605 -3.94084e-24)
(0.761822 0.00127823 1.64218e-24)
(2.13503 0.00361022 0)
(5.35731 0.00924715 0)
(5.40717 0.00608129 1.40432e-23)
(6.92493 0.00782282 -1.66923e-23)
(3.02739 0.00514671 -5.26373e-24)
(4.09131 0.00700244 0)
(3.05309 0.00342299 -1.32822e-18)
(4.12759 0.0046317 0)
(2.15249 0.00241289 1.10737e-18)
(1.39846 0.00156802 -9.23003e-19)
(25.8222 0.0446069 2.00166e-18)
(24.4834 0.0379803 0)
(26.0097 0.0121987 0)
(21.3438 0.0285311 -6.55478e-22)
(21.4097 0.00857194 1.19777e-18)
(19.5074 0.0248585 -1.66077e-22)
(22.9966 0.0327777 -2.79763e-22)
(23.0975 0.00926808 1.33743e-21)
(24.6256 0.0103465 1.95376e-21)
(27.0304 0.0531795 -1.84055e-18)
(27.2636 0.0153109 3.33217e-21)
(19.5456 0.00797895 8.69988e-22)
(17.4958 0.00731956 -1.40369e-18)
(10.6513 -0.0813814 2.13936e-17)
(11.4577 -0.398021 0)
(15.1884 -0.11334 -4.08603e-21)
(12.8938 -0.0974039 2.26489e-17)
(13.7472 -0.473274 -1.33173e-21)
(15.2776 0.0182664 -2.02526e-22)
(8.70728 0.00990986 -4.19599e-23)
(10.7509 0.0123765 5.06893e-23)
(12.9872 0.0151961 0)
(17.4784 0.0214857 0)
(0.76768 0.000861254 7.69245e-19)
(10.7272 0.00473691 -1.39131e-18)
(12.9751 0.00563866 0)
(15.279 0.00652892 0)
(8.67555 0.00390214 1.23388e-18)
(6.8898 0.00316514 1.66857e-23)
(8.60378 -0.0664055 -1.90374e-17)
(5.37276 0.00252519 8.88532e-19)
(4.09671 0.0019708 -1.48595e-18)
(3.02737 0.00148929 6.19876e-19)
(0.759646 0.000394482 3.59011e-19)
(1.38463 0.000707973 -4.30773e-19)
(2.13264 0.00107082 0)
(5.315 -0.0417257 0)
(6.82393 -0.0531428 4.90919e-22)
(5.83352 -0.206769 5.33441e-17)
(9.32786 -0.326526 -7.35298e-17)
(7.44757 -0.262442 -4.39246e-21)
(2.9891 -0.0237866 -1.91767e-17)
(4.04846 -0.0320123 1.14916e-17)
(2.10415 -0.0168376 -2.36107e-23)
(0.748644 -0.00604452 5.5531e-18)
(1.36529 -0.010978 -1.44637e-23)
(25.9866 -0.17829 1.43161e-17)
(24.5631 -0.171576 -1.67432e-20)
(28.4752 -0.184883 -1.2285e-17)
(27.2877 -0.182894 -2.71114e-20)
(26.5095 -0.814933 5.16827e-17)
(27.0343 -1.29795 9.55971e-21)
(21.3038 -0.153057 0)
(23.623 -0.758019 -1.26314e-20)
(23.0068 -0.163107 -1.03449e-21)
(25.1243 -0.790149 -9.49802e-21)
(25.6179 -1.25062 1.23879e-20)
(21.9871 -0.718229 0)
(24.0475 -1.19094 0)
(19.437 -0.141435 -6.08832e-22)
(28.972 -0.841448 -4.4627e-17)
(27.7899 -0.83222 -1.49174e-19)
(16.0431 -0.546518 -4.40637e-21)
(13.1981 -0.68368 0)
(18.0705 -0.923569 4.37544e-21)
(15.6593 -0.806237 0)
(17.394 -0.128176 -2.12179e-17)
(18.2104 -0.612832 -2.44017e-21)
(20.2965 -1.02828 4.74184e-21)
(20.1911 -0.67008 7.53747e-21)
(22.2854 -1.11733 -7.48237e-21)
(28.327 -1.33408 0)
(29.5169 -1.35949 -3.87115e-20)
(30.6166 -1.37393 -3.05533e-17)
(29.5768 -1.3948 0)
(30.7528 -1.40274 0)
(28.2938 -1.37391 7.51431e-21)
(25.2957 -1.28883 -3.16297e-20)
(26.8779 -1.33907 -1.51777e-17)
(31.6331 -1.37657 5.63901e-17)
(10.8542 -0.565098 5.21953e-17)
(16.6924 -0.906614 -9.35355e-22)
(21.4816 -1.1352 -2.01848e-17)
(19.1967 -1.02946 2.17777e-17)
(14.0957 -0.774096 2.20622e-17)
(11.5899 -0.642686 -2.0144e-17)
(23.5091 -1.22144 1.8338e-17)
(4.46472 -0.159066 -1.72783e-22)
(3.30981 -0.118449 1.21716e-22)
(0.836268 -0.030235 -2.15849e-17)
(1.52133 -0.0548424 -2.58989e-17)
(2.33787 -0.0839928 3.10708e-17)
(1.83125 -0.0969448 1.8454e-17)
(1.00951 -0.0535186 2.04315e-23)
(8.74112 -0.45698 -4.49841e-17)
(6.8957 -0.361749 4.03598e-22)
(5.30881 -0.279309 0)
(7.33448 -0.413374 -4.02312e-22)
(9.31785 -0.521153 1.81168e-22)
(3.95474 -0.208575 -1.21698e-22)
(2.8047 -0.148224 -2.21382e-17)
(5.63443 -0.319723 6.44335e-23)
(4.18929 -0.239142 1.04233e-17)
(6.77606 0.363561 1.32152e-16)
(8.52 0.384627 0)
(5.35872 0.287473 -1.12181e-16)
(6.85152 0.309055 2.00962e-21)
(8.72042 0.299388 0)
(10.6202 0.365521 0)
(12.6191 0.43557 1.0008e-20)
(4.16671 0.223494 -7.1603e-22)
(3.17014 0.170019 -5.98081e-22)
(23.1352 0.111316 -5.36576e-18)
(19.386 0.144049 0)
(20.8768 0.16444 0)
(28.4009 0.0202268 8.10761e-22)
(29.5592 -0.183661 -5.64938e-21)
(30.061 -0.841783 0)
(0.584647 0.0313427 0)
(1.06675 0.057193 4.55512e-17)
(0.334418 -0.0194155 0)
(30.3172 -2.07502 0)
(31.6048 -2.10741 0)
(28.8082 -2.0165 1.55209e-20)
(27.0119 -1.92652 -1.62161e-21)
(8.69383 -0.654845 -6.42595e-23)
(6.57405 -0.49586 0)
(4.71969 -0.356144 -6.14687e-18)
(3.11265 -0.234791 1.0253e-17)
(1.73033 -0.1304 -4.2739e-18)
(13.7417 -1.02872 -1.79572e-22)
(11.0873 -0.833077 0)
(19.5325 -1.44467 1.53225e-17)
(16.5999 -1.23633 0)
(22.3461 -1.63754 -1.56529e-17)
(24.8647 -1.80042 0)
(0.548455 -0.041232 0)
(2.96621 -0.170206 -8.69493e-18)
(1.93405 -0.111478 1.87199e-23)
(1.06493 -0.0616155 -2.04306e-23)
(-1.52871 -1.1642 -6.898e-17)
(-1.69398 -2.11104 -3.54027e-16)
(4.77602 0.070645 0)
(-1.40636 -2.13146 6.57681e-16)
(-1.89811 -2.52808 1.05685e-16)
(15.1669 1.52245 5.46226e-16)
(2.48267 -0.651179 5.92814e-16)
(-0.402588 -1.5563 -2.93615e-16)
(-1.51378 -2.35141 0)
(-1.61871 -3.1381 -7.43283e-17)
(-1.84087 -2.61815 -7.36587e-17)
(28.3261 3.4252 -2.53101e-16)
(8.55371 1.06403 -1.46865e-15)
(-0.812196 -1.71698 0)
(-1.28767 -2.23772 0)
(-1.49094 -2.50638 1.37226e-16)
(-1.64242 -2.99522 1.77168e-16)
(-1.67259 -2.56866 7.52097e-17)
(-1.23033 -2.92259 -5.45265e-17)
(31.8436 4.19317 -2.54111e-16)
(24.1639 3.88015 7.16041e-17)
(5.32692 1.11395 4.40607e-17)
(-0.307263 -1.41857 4.16449e-16)
(-1.01261 -2.35234 -1.08519e-16)
(-1.09434 -2.46796 0)
(-1.48113 -2.85212 -7.78363e-17)
(-1.34097 -2.5239 -1.37325e-16)
(-1.16102 -2.74519 4.49066e-17)
(-1.03838 -2.63937 -2.44625e-17)
(33.2385 4.89784 2.04427e-16)
(24.9053 4.37543 2.32674e-16)
(2.34621 0.0316909 4.68118e-16)
(-0.66385 -1.89182 1.15677e-18)
(-0.822749 -2.24712 -6.51299e-16)
(-0.713818 -2.34216 2.75817e-16)
(-0.915592 -2.44193 0)
(-0.67352 -2.48372 0)
(-1.37431 -2.72212 -8.24364e-17)
(-1.29449 -2.61498 3.76256e-17)
(-1.01981 -2.45494 0)
(-1.20252 -2.66378 -4.50865e-17)
(-0.995897 -2.4499 4.16748e-17)
(-0.93584 -2.28372 -1.02665e-16)
(23.0955 3.17346 -4.33966e-17)
(1.83629 -0.413516 -4.94606e-16)
(-0.0931204 -1.64401 1.94608e-17)
(-0.386049 -2.29774 -2.0716e-16)
(-0.63301 -2.42779 0)
(-0.121071 -2.40287 -2.67635e-16)
(-0.466664 -2.37495 0)
(-0.247187 -2.40708 0)
(-1.11213 -2.50844 -3.91233e-17)
(-0.707478 -2.3393 -1.32497e-16)
(-1.12473 -2.5534 4.02841e-17)
(-0.995631 -2.39729 0)
(-0.925345 -2.11408 5.37341e-17)
(-0.923233 -1.92634 -5.37458e-17)
(36.6977 5.69174 0)
(8.8577 0.727299 0)
(-0.288308 -1.78854 -1.24349e-16)
(-0.340654 -2.1509 0)
(0.139557 -2.34848 6.87384e-16)
(0.0279424 -2.41817 0)
(0.266175 -2.37089 3.66792e-16)
(-0.141977 -2.24529 0)
(0.215836 -2.34109 0)
(-0.925879 -2.39909 -8.92789e-18)
(-0.738487 -2.34194 1.34638e-16)
(-0.296057 -2.24382 0)
(-1.03056 -2.43282 4.00218e-17)
(-0.884338 -2.18059 3.78966e-17)
(-0.888201 -2.07179 -2.09596e-17)
(-0.91749 -1.78985 2.68884e-17)
(-0.950705 -1.6017 2.54454e-17)
(36.4206 5.76714 -1.3385e-16)
(6.22644 -0.0245432 -1.43775e-16)
(1.16701 -0.876179 4.05012e-16)
(0.0443474 -2.17506 0)
(1.02435 -2.33933 -4.40316e-18)
(0.652086 -2.32644 1.41937e-16)
(1.48363 -2.29629 -1.32427e-16)
(0.295233 -2.17017 -1.18037e-16)
(0.67602 -2.32526 4.83327e-17)
(0.518034 -2.21037 1.21028e-16)
(-0.830436 -2.29051 5.17701e-17)
(-0.512016 -2.18392 0)
(-0.0364791 -2.11158 -3.73049e-17)
(-0.894321 -2.30408 -8.38638e-17)
(-0.808719 -2.1623 -1.83988e-19)
(-0.853076 -1.88034 1.09567e-16)
(-0.930303 -1.51283 0)
(-1.00741 -1.28818 0)
(23.9876 4.35706 -1.5814e-16)
(43.6323 6.6014 0)
(8.03223 0.689814 -5.34266e-16)
(0.7223 -1.37855 4.45968e-16)
(0.815685 -2.33238 0)
(0.308699 -1.92429 -3.45963e-16)
(2.11442 -2.27839 -2.96317e-16)
(1.61431 -2.26184 -5.38125e-16)
(2.35624 -2.25068 1.67324e-16)
(0.62463 -2.019 1.09962e-16)
(1.32295 -2.14633 -2.66653e-17)
(1.03971 -2.11786 6.08635e-17)
(-0.648081 -2.16718 0)
(-0.25397 -2.07993 0)
(0.419234 -1.99013 -8.83696e-17)
(-0.668012 -2.07202 -3.35738e-17)
(-0.770676 -1.75864 -6.9897e-17)
(-0.82622 -1.56962 0)
(-0.952086 -1.24337 0)
(-1.0743 -0.992333 -2.98676e-17)
(24.6209 4.45086 5.2265e-16)
(44.4244 7.13613 9.71909e-17)
(2.67577 -0.612109 -4.53976e-16)
(1.53495 -2.33343 0)
(0.90127 -2.21724 0)
(3.24587 -2.26781 0)
(2.4288 -2.08672 3.42966e-16)
(3.52964 -2.13455 -1.69657e-16)
(1.0478 -1.96741 0)
(2.04106 -2.0629 2.56575e-16)
(1.35329 -2.0113 -5.68441e-17)
(-0.0797714 -1.93326 1.63134e-17)
(0.535308 -1.88728 -3.3394e-17)
(-0.604274 -1.93517 0)
(-0.68627 -1.77152 0)
(-0.795613 -1.41586 0)
(-0.960678 -1.14556 -4.89704e-17)
(-0.98629 -0.94712 -1.2866e-17)
(-1.04918 -0.830345 1.28751e-16)
(14.3924 2.99469 -3.85712e-16)
(36.8093 6.35851 -1.02658e-16)
(2.42642 -1.70315 1.28506e-15)
(2.58343 -2.29622 -2.57043e-16)
(1.33847 -2.38613 0)
(4.56735 -2.12299 1.44559e-16)
(3.36799 -2.27653 3.94137e-16)
(2.45748 -2.05826 -2.03335e-16)
(3.5818 -2.02625 0)
(3.96912 -2.02101 0)
(4.59179 -2.09339 0)
(1.36394 -1.79795 6.468e-19)
(2.43753 -1.94405 -5.67411e-17)
(2.00617 -1.90512 0)
(-0.150532 -1.85018 -6.97704e-17)
(0.318143 -1.86282 1.75258e-17)
(1.03348 -1.74855 -3.45214e-17)
(-0.370911 -1.83412 7.18e-17)
(-0.52123 -1.6127 -5.08185e-17)
(-0.646553 -1.36358 0)
(-0.852386 -1.09252 4.58999e-17)
(-0.985499 -0.77793 -9.53178e-17)
(-1.16603 -0.571027 0)
(19.9997 4.88901 1.67988e-16)
(4.55844 -0.0345889 -7.1232e-16)
(38.6507 6.62301 0)
(1.09108 -2.21974 0)
(3.54322 -2.26292 -2.2402e-16)
(2.80504 -2.35363 2.26493e-16)
(5.78445 -2.03741 -1.49589e-16)
(4.97109 -2.1759 1.29942e-16)
(3.46593 -1.94554 2.68167e-17)
(4.15114 -1.93553 0)
(5.42879 -1.9044 -1.74562e-16)
(5.84075 -1.94882 0)
(1.8515 -1.73901 5.03536e-17)
(3.20699 -1.85119 0)
(2.26118 -1.79586 0)
(0.0772247 -1.67089 -3.76427e-17)
(0.546085 -1.70282 3.83079e-17)
(1.00018 -1.652 0)
(-0.331555 -1.66279 4.46067e-17)
(-0.496027 -1.44645 4.46687e-18)
(-0.70702 -1.15112 0)
(-0.801553 -0.804099 9.09225e-17)
(-1.03928 -0.521089 0)
(-1.14837 -0.398292 0)
(32.5772 5.96767 0)
(12.8031 3.92447 0)
(2.99239 0.472184 0)
(1.43877 -1.61745 0)
(5.13567 -2.13987 0)
(3.36656 -2.07077 -3.2757e-16)
(6.0399 -2.05995 -2.49977e-16)
(7.27247 -1.88174 0)
(3.70879 -1.85179 -2.38444e-17)
(5.18123 -1.792 -1.74931e-16)
(6.03565 -1.75182 2.96942e-16)
(7.26022 -1.86409 0)
(2.17954 -1.6201 2.49706e-17)
(3.4312 -1.70254 0)
(2.97479 -1.70158 0)
(-0.101302 -1.58408 0)
(0.364433 -1.62386 -3.11859e-17)
(1.25589 -1.52449 -5.49551e-17)
(-0.324685 -1.38099 4.3818e-17)
(-0.568051 -1.06337 0)
(-0.638159 -0.886753 -1.40671e-16)
(-0.824429 -0.624683 0)
(-1.02539 -0.355456 0)
(-1.19946 -0.226098 1.03032e-16)
(40.0784 7.47876 1.46901e-16)
(12.7063 3.13594 0)
(1.77118 -0.887929 -1.90182e-16)
(2.48106 -1.75541 5.03952e-17)
(6.49661 -2.10738 1.81792e-16)
(5.11157 -2.03375 3.58232e-16)
(7.79322 -1.95911 1.3361e-16)
(8.70876 -1.85241 -2.4743e-16)
(4.51998 -1.71416 -1.25941e-16)
(5.32899 -1.68159 8.93998e-17)
(7.16148 -1.57875 -2.38054e-16)
(8.49961 -1.61566 6.77847e-17)
(2.97772 -1.59467 1.26237e-16)
(2.14464 -1.595 2.90048e-17)
(4.14996 -1.57909 0)
(-0.0883995 -1.46976 6.75218e-17)
(0.563541 -1.4822 0)
(1.01754 -1.4395 1.1411e-16)
(1.67794 -1.50193 5.72795e-19)
(-0.24833 -1.228 3.17953e-17)
(-0.342522 -1.1193 -8.26203e-17)
(-0.3888 -0.849231 4.44403e-17)
(-0.639598 -0.624338 2.93083e-19)
(-0.698828 -0.429604 1.494e-16)
(-1.02834 -0.2125 -1.17999e-16)
(-1.14134 -0.123732 1.70699e-16)
(31.6746 6.64314 -1.16288e-16)
(7.12649 1.06471 0)
(2.66953 -0.327127 2.16181e-16)
(3.46809 -1.59934 2.95535e-16)
(8.36313 -1.91461 0)
(6.63763 -1.98311 -5.68302e-16)
(6.2771 -1.98598 0)
(10.637 -1.61168 1.02858e-16)
(4.64542 -1.5501 2.69129e-17)
(6.14796 -1.50637 0)
(7.69438 -1.50854 2.39872e-16)
(8.26583 -1.53867 1.68561e-16)
(10.4202 -1.52387 -6.78434e-17)
(3.56617 -1.47689 -1.06453e-16)
(2.49967 -1.45004 0)
(4.28612 -1.46816 0)
(0.0830114 -1.39778 -8.50846e-17)
(0.439427 -1.40599 0)
(1.15068 -1.28082 -9.88445e-17)
(2.00541 -1.35984 -9.80167e-17)
(0.0348077 -1.26516 2.04204e-17)
(-0.19122 -0.990568 0)
(-0.368397 -0.761361 4.61396e-17)
(-0.549911 -0.534536 -1.36576e-16)
(-0.66505 -0.339324 5.57936e-17)
(-1.01327 -0.101973 -1.22143e-16)
(-1.21548 0.00832975 0)
(33.4991 7.11819 -1.93466e-16)
(7.31217 1.07166 4.74392e-16)
(2.96375 -0.963007 2.5644e-16)
(5.28342 -1.76619 3.08608e-17)
(10.3221 -1.73331 0)
(8.94171 -1.72834 3.53536e-16)
(8.59991 -1.93492 2.62432e-16)
(11.8945 -1.54506 1.34533e-17)
(11.5813 -1.52934 0)
(5.4821 -1.413 0)
(6.07758 -1.46226 9.36312e-17)
(7.18715 -1.44535 -1.73885e-16)
(9.01487 -1.3985 2.03951e-17)
(9.53642 -1.39863 0)
(11.2854 -1.35369 0)
(3.61897 -1.40214 -1.0653e-16)
(3.10274 -1.35038 0)
(5.15017 -1.35195 0)
(0.550202 -1.28543 0)
(1.44466 -1.23433 -1.60857e-19)
(0.78597 -1.20224 0)
(1.95067 -1.30789 9.56585e-17)
(0.232213 -1.20745 0)
(0.139051 -1.04019 0)
(-0.108727 -0.732451 1.19235e-16)
(-0.209237 -0.592425 -1.15058e-16)
(-0.392452 -0.347485 -9.71333e-17)
(-0.60321 -0.175206 0)
(-1.06559 0.0175542 0)
(-1.23553 0.112789 -7.64635e-17)
(22.1613 4.90194 -2.42052e-16)
(43.0794 8.33504 7.35387e-17)
(4.53358 -0.755696 0)
(3.95916 -1.33744 -1.27223e-16)
(6.67609 -1.73671 0)
(11.0147 -1.5507 -3.23532e-16)
(11.1507 -1.90247 1.50947e-16)
(14.3423 -1.4197 -3.06647e-16)
(14.1692 -1.27041 -3.89407e-16)
(6.93875 -1.35718 -1.03081e-16)
(7.73247 -1.26942 0)
(9.53468 -1.28922 0)
(10.5138 -1.40398 0)
(12.7705 -1.16799 0)
(4.58207 -1.28886 2.46533e-18)
(3.17079 -1.26287 -1.24481e-16)
(5.28987 -1.33267 1.00236e-16)
(1.44712 -1.09492 0)
(0.935272 -1.05145 0)
(2.38671 -1.21872 -3.13654e-17)
(0.278283 -0.952057 0)
(0.148445 -0.799012 -8.89707e-17)
(0.0245687 -0.557124 6.48615e-17)
(-0.358518 -0.28208 0)
(0.011182 -0.471154 2.28109e-17)
(-0.561661 -0.139939 -5.6093e-17)
(-0.795042 -0.0417852 -3.10443e-19)
(-1.03774 0.121778 -1.35676e-19)
(-1.17591 0.189362 0)
(20.9981 5.18667 -1.30958e-16)
(44.3064 8.58142 0)
(5.05231 -0.432239 2.13231e-16)
(5.49035 -1.66786 -8.51059e-17)
(10.0738 -1.78674 0)
(13.7737 -1.5921 2.77821e-16)
(14.3652 -1.43482 -3.31054e-16)
(15.8122 -1.221 3.33997e-16)
(16.0297 -1.37362 1.76036e-16)
(14.9667 -1.19531 0)
(7.22922 -1.30102 -2.22306e-16)
(8.63934 -1.19091 0)
(9.24661 -1.27181 0)
(10.8744 -1.19427 -2.0331e-17)
(11.5381 -1.30324 0)
(14.0314 -1.21202 -1.44111e-16)
(12.6475 -1.20527 0)
(4.90756 -1.16484 0)
(3.57805 -1.11151 5.3943e-17)
(6.49756 -1.23166 1.68763e-16)
(1.74817 -1.06493 1.26891e-16)
(0.777685 -0.976296 0)
(2.36046 -1.15003 -3.30866e-17)
(0.443885 -0.773785 6.56882e-17)
(0.451207 -0.670675 1.07564e-16)
(0.0446152 -0.336832 0)
(0.346064 -0.480127 0)
(-0.27022 -0.144583 0)
(-0.647974 -0.0221602 6.55694e-17)
(-0.748233 0.0482211 5.94406e-17)
(-1.01214 0.182893 0)
(-1.15894 0.230999 -3.61813e-17)
(34.9021 7.58533 5.13611e-17)
(10.198 2.37562 -1.35659e-16)
(46.3734 8.69969 2.63606e-17)
(5.49487 -1.25619 -2.83262e-16)
(6.59405 -1.64641 0)
(11.52 -1.75095 0)
(15.4212 -1.48406 -3.60235e-16)
(18.1044 -1.18348 0)
(18.5328 -1.00435 0)
(18.6315 -1.14695 1.49211e-16)
(17.3496 -0.954621 2.57693e-16)
(8.40396 -1.21498 2.29994e-17)
(10.3823 -1.21407 -4.66566e-17)
(11.5781 -1.23419 0)
(11.1397 -1.21798 -6.862e-17)
(15.9062 -1.05458 4.30044e-16)
(13.7518 -1.11911 0)
(6.14606 -1.14445 2.15965e-16)
(4.70133 -1.15309 -5.7127e-17)
(4.07106 -1.04706 5.56873e-17)
(3.08485 -0.966946 -1.17687e-16)
(6.68337 -1.14121 -1.67394e-16)
(1.83777 -0.946775 -6.45617e-17)
(0.863035 -0.875516 -7.84799e-17)
(2.70143 -1.03832 6.07791e-17)
(0.781833 -0.650095 -8.3167e-17)
(0.193613 -0.304994 0)
(0.353805 -0.432935 0)
(0.744601 -0.577963 -8.86495e-17)
(0.0706629 -0.229497 0)
(-0.380247 -0.0729424 6.10683e-17)
(-0.477874 0.0361584 5.63106e-17)
(-0.698746 0.138093 -1.20561e-16)
(-1.13742 0.251021 8.49835e-20)
(32.0138 6.95711 0)
(15.5086 3.66791 0)
(47.0005 8.70662 -1.64693e-17)
(6.75464 -1.35298 3.09291e-16)
(9.40822 -1.70371 0)
(16.5378 -1.11479 0)
(19.3302 -1.22621 3.89229e-16)
(22.241 -0.879646 0)
(18.8314 -0.733548 0)
(20.0842 -0.928703 0)
(19.866 -0.866497 0)
(20.5471 -1.01848 1.43837e-16)
(19.1385 -0.954066 -2.27889e-16)
(17.5126 -0.931375 0)
(8.88936 -1.15694 -1.28931e-16)
(10.2717 -1.10023 9.82992e-17)
(13.0476 -1.15683 -8.75619e-17)
(12.3753 -1.1267 1.14924e-16)
(15.4286 -1.11159 -4.32964e-16)
(6.47074 -1.06103 1.26426e-17)
(5.07328 -1.07106 1.92376e-16)
(4.38081 -0.95296 6.17073e-17)
(3.42016 -0.842397 6.19251e-17)
(7.95619 -1.04369 0)
(2.26984 -0.924278 -1.32227e-16)
(1.3476 -0.825173 2.1924e-18)
(1.3192 -0.745862 -2.24324e-18)
(0.682252 -0.398902 8.71675e-17)
(0.703947 -0.455505 0)
(0.978511 -0.541285 8.78092e-17)
(0.295824 -0.197814 0)
(-0.23837 -0.049626 -1.12283e-16)
(-0.458874 0.0553645 1.17723e-16)
(-0.441366 0.136386 7.60344e-17)
(-0.949694 0.265471 0)
(-1.11291 0.305415 -7.47573e-17)
(36.8141 7.50483 7.1096e-17)
(11.6664 2.50638 -1.10543e-16)
(45.0661 8.63547 6.79785e-17)
(6.73065 -0.584284 -2.27896e-17)
(10.8186 -1.28742 -9.42655e-17)
(11.9147 -1.27394 0)
(16.899 -0.81427 0)
(22.3212 -0.936897 -3.50576e-16)
(25.817 -0.457157 0)
(24.0021 -0.421726 0)
(22.7434 -0.846421 0)
(22.8967 -0.634699 0)
(23.8223 -0.570165 -1.13435e-16)
(21.4104 -0.818993 -2.33957e-16)
(19.5775 -0.774666 0)
(8.73031 -1.13174 8.75578e-17)
(11.0061 -1.0487 4.69167e-17)
(13.4572 -1.15129 7.758e-17)
(12.3062 -0.995707 -6.94288e-17)
(16.3707 -1.05367 1.40659e-16)
(7.74767 -0.950052 -1.19951e-17)
(5.85641 -0.969249 -9.37951e-17)
(4.24225 -0.911635 -5.95491e-17)
(3.30172 -0.814519 6.84991e-17)
(2.45549 -0.755795 1.26493e-16)
(1.6523 -0.668716 0)
(1.00449 -0.366134 -1.61862e-16)
(1.3448 -0.567677 0)
(0.605581 -0.240602 -4.58511e-17)
(0.0550167 -0.0941589 0)
(-0.017281 0.0222219 0)
(-0.484809 0.162781 1.02382e-16)
(-0.0245644 0.0370201 -1.07479e-16)
(-0.93157 0.262495 0)
(-0.967828 0.296533 7.95075e-17)
(-1.14029 0.349311 0)
(33.1658 7.06321 -3.25611e-16)
(21.8191 5.03492 0)
(8.09566 1.35132 1.28358e-16)
(46.3148 8.91198 -6.85239e-17)
(11.0299 -0.74403 1.71819e-17)
(13.6662 -0.975316 5.27002e-17)
(20.6719 -0.884302 0)
(25.4681 -0.383642 2.35971e-16)
(28.9828 -0.0469479 0)
(26.2295 -0.213851 0)
(24.9038 -0.492048 2.52021e-16)
(24.2361 -0.69378 -2.26305e-17)
(23.7239 -0.5661 4.30936e-16)
(21.4523 -0.749886 0)
(19.5277 -0.91113 -1.32732e-16)
(9.82788 -1.02405 0)
(10.788 -0.992053 0)
(14.9324 -1.05086 0)
(13.4612 -0.915928 0)
(17.8988 -0.83584 1.45272e-16)
(8.10187 -0.870971 0)
(6.00643 -0.83724 3.38532e-16)
(4.59299 -0.827921 -1.29508e-16)
(3.68139 -0.742282 -8.02147e-17)
(2.81454 -0.744137 0)
(2.07457 -0.6408 1.00852e-18)
(1.50761 -0.472874 7.56439e-17)
(0.970991 -0.351297 1.03748e-17)
(0.796342 -0.175567 5.59652e-17)
(0.227428 -0.0556352 0)
(-0.287715 0.138365 -1.11169e-16)
(0.255594 0.0455957 -1.68394e-20)
(-0.536021 0.197999 0)
(-0.654103 0.253758 -7.16475e-17)
(-0.912701 0.33283 0)
(-1.01067 0.352096 3.78161e-17)
(40.724 8.57068 8.67917e-17)
(19.6557 4.36011 0)
(8.92071 1.2633 -3.23452e-17)
(45.6411 8.65236 -4.39406e-16)
(11.617 -0.701509 -1.2794e-16)
(18.1402 -0.691399 -1.93621e-17)
(25.051 -0.329902 0)
(20.809 -0.717156 0)
(29.0751 -0.140179 9.7793e-17)
(31.9087 0.450958 1.31593e-16)
(30.3615 0.0298214 -1.18162e-17)
(31.1106 0.352961 0)
(27.7727 -0.116962 1.79384e-17)
(27.2936 -0.265558 1.87184e-17)
(25.9166 -0.323918 -1.93516e-16)
(23.7946 -0.468601 0)
(20.6428 -0.736025 0)
(9.96393 -0.914184 2.32979e-17)
(11.7759 -0.918975 5.49785e-17)
(15.2532 -0.91736 0)
(13.239 -0.945638 -8.93929e-17)
(18.8695 -0.717176 0)
(7.9428 -0.952726 4.88265e-17)
(9.4438 -0.777207 -4.7532e-17)
(5.3918 -0.798161 -2.23316e-16)
(7.30633 -0.787813 -9.59036e-17)
(4.14729 -0.729164 1.45955e-16)
(3.33676 -0.645654 3.17034e-17)
(2.95211 -0.641075 1.00429e-16)
(2.4639 -0.5394 -1.43544e-16)
(1.92598 -0.446375 -1.47453e-16)
(1.31283 -0.303997 0)
(0.572752 -0.0784828 0)
(1.05191 -0.202374 3.30742e-17)
(-0.00789251 0.11346 5.66832e-17)
(0.646358 0.0115376 0)
(-0.429247 0.210329 -1.59295e-17)
(-0.59183 0.263294 1.31917e-16)
(-0.831711 0.335001 -3.40588e-17)
(-1.00479 0.376701 4.34497e-17)
(33.3591 7.59803 1.08714e-16)
(13.4424 2.32256 -1.41321e-16)
(9.81356 0.183327 -4.45326e-17)
(45.9419 8.59429 4.05218e-16)
(17.4753 -0.365311 6.44955e-17)
(21.752 -0.151464 1.45772e-17)
(28.0548 0.278946 8.0074e-17)
(25.6731 0.0159403 0)
(30.9291 0.00259929 -1.10964e-16)
(34.6924 0.756664 -3.41077e-16)
(33.8091 0.436331 2.07296e-16)
(33.9756 0.616574 0)
(30.0258 -0.157992 -2.72365e-16)
(28.749 0.0282206 -3.97347e-17)
(28.0962 -0.308602 1.87939e-16)
(25.8057 -0.400032 0)
(23.8369 -0.346169 -3.90648e-16)
(22.3362 -0.497902 2.53757e-16)
(11.3907 -0.855897 2.27665e-17)
(16.782 -0.728903 -7.38528e-17)
(14.4357 -0.784294 1.6389e-16)
(18.7502 -0.80288 2.77794e-16)
(9.33673 -0.832964 7.57039e-20)
(5.52854 -0.714518 -3.1078e-16)
(7.25123 -0.745043 0)
(4.31841 -0.659398 -6.66452e-17)
(3.70614 -0.568742 6.65332e-17)
(2.44442 -0.525312 1.37851e-16)
(2.08371 -0.381699 -9.42893e-18)
(1.81334 -0.313785 0)
(0.909955 -0.056403 0)
(1.27821 -0.150953 -5.43012e-17)
(0.225964 0.104851 -5.47201e-17)
(0.649951 0.0306443 5.09043e-17)
(0.915749 -0.0688256 0)
(0.0172119 0.155564 1.44279e-17)
(-0.280702 0.244479 -5.8121e-17)
(-0.513348 0.291627 1.00623e-16)
(-0.766801 0.358816 1.63045e-20)
(-0.907293 0.371503 -8.30439e-17)
(34.1208 7.58649 1.56806e-16)
(11.8416 2.11885 3.65919e-16)
(11.7815 0.186737 4.76974e-16)
(46.6265 8.87722 -1.38125e-16)
(16.6315 -0.126863 -1.90921e-17)
(21.7683 0.312041 4.15297e-17)
(26.3843 0.285427 0)
(32.1891 0.594747 -2.02273e-16)
(34.1702 0.559029 -2.30181e-16)
(37.4669 1.02992 1.68329e-16)
(35.4822 0.6596 2.07892e-16)
(37.234 1.00028 0)
(32.6351 0.174901 -9.5706e-17)
(32.0222 0.358558 3.76478e-17)
(30.5546 -0.116204 -2.10451e-16)
(27.7991 -0.184926 2.46644e-16)
(25.5914 -0.209916 1.54479e-16)
(22.9803 -0.502383 0)
(11.8781 -0.766593 0)
(17.0765 -0.705297 -1.75083e-16)
(16.0685 -0.703488 5.56049e-18)
(13.6087 -0.742555 -1.9349e-16)
(20.1522 -0.679274 2.77362e-18)
(9.79498 -0.717698 2.26329e-17)
(6.40967 -0.694779 6.48089e-17)
(4.91858 -0.653714 2.88731e-16)
(8.05921 -0.665253 1.51252e-17)
(3.55435 -0.539725 -1.86769e-16)
(2.91049 -0.495105 4.0104e-17)
(2.67254 -0.420987 -1.81437e-16)
(2.0306 -0.292223 0)
(1.77617 -0.223157 4.16343e-17)
(0.972708 0.0136942 9.66522e-17)
(1.55028 -0.120613 0)
(0.113097 0.165283 5.75852e-17)
(-0.256029 0.238916 -6.72012e-17)
(-0.329743 0.283073 -3.73382e-17)
(-0.439602 0.310096 -1.40035e-16)
(-0.635356 0.327742 1.43535e-16)
(-0.767244 0.340755 -3.49881e-17)
(41.5919 8.69917 -1.67987e-16)
(23.4564 5.37919 -1.36393e-16)
(11.2408 0.382979 -3.10479e-16)
(20.0054 0.241268 -4.45271e-17)
(29.0822 0.751577 -9.38194e-17)
(30.5443 0.471568 4.45328e-17)
(35.4194 1.01214 1.10075e-16)
(34.9998 0.632881 1.26403e-16)
(38.4864 1.10827 0)
(39.6718 1.20164 -1.39027e-16)
(38.5322 0.979104 2.06122e-16)
(40.4644 1.59273 0)
(33.307 0.294455 -3.39825e-17)
(32.9564 0.302329 0)
(30.2038 -0.0486788 -9.79398e-17)
(27.3022 -0.0480534 1.42613e-16)
(24.8877 -0.360591 0)
(21.9396 -0.550788 0)
(11.3751 -0.703529 -1.23577e-16)
(18.9616 -0.646789 -8.48988e-17)
(17.2945 -0.569977 -1.64795e-16)
(13.8637 -0.716861 -8.95709e-17)
(9.79036 -0.734791 -2.33869e-17)
(6.5325 -0.60995 0)
(5.10032 -0.576731 0)
(9.16688 -0.680553 -6.10866e-17)
(7.50596 -0.609163 0)
(3.92449 -0.494735 2.14093e-16)
(2.95038 -0.405466 1.47048e-16)
(2.65636 -0.338176 0)
(1.96249 -0.2026 -1.56956e-21)
(1.5285 -0.0564972 -1.75088e-16)
(0.963702 0.039649 -2.78598e-16)
(0.550507 0.117262 1.53553e-16)
(0.13936 0.208357 0)
(0.0418441 0.234702 3.04948e-17)
(-0.161572 0.277173 1.04341e-16)
(-0.180153 0.260089 -1.50269e-16)
(-0.591023 0.32659 0)
(-0.80975 0.342195 0)
(41.8587 8.54575 2.4444e-16)
(22.5812 5.3076 0)
(11.5393 0.971609 5.39352e-16)
(16.0575 0.362612 2.36609e-16)
(27.3664 1.07525 3.4613e-17)
(30.9487 1.0528 7.97725e-18)
(32.5734 0.884891 7.13419e-17)
(34.8042 0.988397 -7.85359e-18)
(40.2921 1.71753 -2.19022e-16)
(37.1023 0.910424 0)
(41.3347 1.35778 0)
(42.2565 1.56081 -4.4952e-17)
(40.0923 1.16815 -3.7424e-16)
(42.8 2.03615 0)
(36.526 0.678256 0)
(34.6177 0.617592 0)
(31.821 0.117863 3.85056e-17)
(29.2572 0.144782 -2.29591e-16)
(25.5505 -0.378412 9.03381e-18)