/*--------------------------------*- C++ -*----------------------------------*\
| =========                 |                                                 |
| \\      /  F ield         | OpenFOAM: The Open Source CFD Toolbox           |
|  \\    /   O peration     | Version:  v1912                                 |
|   \\  /    A nd           | Website:  www.openfoam.com                      |
|    \\/     M anipulation  |                                                 |
\*---------------------------------------------------------------------------*/
FoamFile
{
    version     2.0;
    format      ascii;
    class       volScalarField;
    location    "10000";
    object      p;
}
// * * * * * * * * * * * * * * * * * * * * * * * * * * * * * * * * * * * * * //

dimensions      [0 2 -2 0 0 0 0];


internalField   nonuniform List<scalar> 
2500
(
5.77519e-15
9.51619e-15
1.0221e-14
1.04157e-14
1.05003e-14
1.05154e-14
1.05058e-14
1.04908e-14
1.04754e-14
1.04606e-14
1.04465e-14
1.04329e-14
1.04194e-14
1.04061e-14
1.03928e-14
1.03792e-14
1.03657e-14
1.03521e-14
1.03382e-14
1.03244e-14
1.03105e-14
1.02963e-14
1.02823e-14
1.02681e-14
1.02541e-14
1.02398e-14
1.02256e-14
1.02116e-14
1.01969e-14
1.01831e-14
1.01684e-14
1.0154e-14
1.01387e-14
1.01229e-14
1.01074e-14
1.00917e-14
1.0077e-14
1.00628e-14
1.00456e-14
1.00333e-14
1.00177e-14
1.00033e-14
9.99284e-15
9.98472e-15
9.97225e-15
9.96217e-15
9.9474e-15
9.93966e-15
9.93614e-15
9.94009e-15
9.5162e-15
1.01328e-14
1.03367e-14
1.04322e-14
1.04803e-14
1.04922e-14
1.04882e-14
1.04787e-14
1.04672e-14
1.0455e-14
1.04426e-14
1.043e-14
1.04173e-14
1.04045e-14
1.03914e-14
1.03782e-14
1.03647e-14
1.03514e-14
1.03376e-14
1.03239e-14
1.03101e-14
1.02959e-14
1.0282e-14
1.02678e-14
1.02538e-14
1.02396e-14
1.02255e-14
1.02114e-14
1.01967e-14
1.01829e-14
1.01683e-14
1.0154e-14
1.01386e-14
1.01228e-14
1.01073e-14
1.00916e-14
1.0077e-14
1.00628e-14
1.00456e-14
1.00332e-14
1.00177e-14
1.00033e-14
9.99287e-15
9.98468e-15
9.97215e-15
9.96215e-15
9.94732e-15
9.93964e-15
9.93609e-15
9.94006e-15
1.0221e-14
1.03367e-14
1.03871e-14
1.04339e-14
1.04615e-14
1.04709e-14
1.04708e-14
1.04658e-14
1.0458e-14
1.04485e-14
1.04378e-14
1.04265e-14
1.04146e-14
1.04023e-14
1.03897e-14
1.03768e-14
1.03636e-14
1.03504e-14
1.03367e-14
1.03232e-14
1.03094e-14
1.02953e-14
1.02815e-14
1.02674e-14
1.02535e-14
1.02393e-14
1.02253e-14
1.02112e-14
1.01965e-14
1.01827e-14
1.01682e-14
1.01538e-14
1.01384e-14
1.01226e-14
1.01073e-14
1.00917e-14
1.00769e-14
1.00627e-14
1.00457e-14
1.0033e-14
1.00175e-14
1.00031e-14
9.99279e-15
9.98459e-15
9.97224e-15
9.96212e-15
9.9472e-15
9.93954e-15
9.93608e-15
9.94021e-15
1.04157e-14
1.04322e-14
1.04339e-14
1.0445e-14
1.04538e-14
1.04574e-14
1.04574e-14
1.04544e-14
1.0449e-14
1.04416e-14
1.04325e-14
1.04223e-14
1.04113e-14
1.03997e-14
1.03874e-14
1.03749e-14
1.03619e-14
1.03489e-14
1.03355e-14
1.03221e-14
1.03086e-14
1.02945e-14
1.0281e-14
1.02668e-14
1.02529e-14
1.02388e-14
1.02249e-14
1.02108e-14
1.01962e-14
1.01824e-14
1.01678e-14
1.01536e-14
1.01382e-14
1.01222e-14
1.01071e-14
1.00916e-14
1.00767e-14
1.00628e-14
1.00457e-14
1.00331e-14
1.00175e-14
1.00029e-14
9.99289e-15
9.98446e-15
9.97263e-15
9.96214e-15
9.94697e-15
9.93953e-15
9.93606e-15
9.94028e-15
1.05004e-14
1.04803e-14
1.04615e-14
1.04539e-14
1.04505e-14
1.04485e-14
1.04468e-14
1.04444e-14
1.04402e-14
1.04342e-14
1.04264e-14
1.04173e-14
1.0407e-14
1.03962e-14
1.03844e-14
1.03724e-14
1.03598e-14
1.0347e-14
1.03339e-14
1.03207e-14
1.03073e-14
1.02935e-14
1.02799e-14
1.02661e-14
1.02522e-14
1.02381e-14
1.02244e-14
1.02106e-14
1.01959e-14
1.01821e-14
1.01674e-14
1.01533e-14
1.0138e-14
1.01222e-14
1.01069e-14
1.00915e-14
1.00766e-14
1.00626e-14
1.00457e-14
1.00332e-14
1.00176e-14
1.00028e-14
9.99316e-15
9.98427e-15
9.97253e-15
9.9623e-15
9.94657e-15
9.93942e-15
9.9357e-15
9.94004e-15
1.05154e-14
1.04923e-14
1.04709e-14
1.04574e-14
1.04485e-14
1.04425e-14
1.04386e-14
1.04355e-14
1.04316e-14
1.04263e-14
1.04195e-14
1.04112e-14
1.04019e-14
1.03919e-14
1.03806e-14
1.0369e-14
1.03569e-14
1.03446e-14
1.03317e-14
1.03187e-14
1.03055e-14
1.0292e-14
1.02784e-14
1.0265e-14
1.02515e-14
1.02374e-14
1.02237e-14
1.02102e-14
1.01953e-14
1.01819e-14
1.0167e-14
1.0153e-14
1.01376e-14
1.01218e-14
1.01067e-14
1.00914e-14
1.00768e-14
1.00629e-14
1.00457e-14
1.00327e-14
1.00172e-14
1.00029e-14
9.99296e-15
9.98429e-15
9.97237e-15
9.96209e-15
9.94599e-15
9.93914e-15
9.93543e-15
9.93939e-15
1.05057e-14
1.04882e-14
1.04707e-14
1.04573e-14
1.04468e-14
1.04387e-14
1.04328e-14
1.04283e-14
1.04239e-14
1.04188e-14
1.04123e-14
1.04046e-14
1.03961e-14
1.03865e-14
1.0376e-14
1.0365e-14
1.03533e-14
1.03418e-14
1.03287e-14
1.03162e-14
1.03034e-14
1.02903e-14
1.02769e-14
1.02635e-14
1.02504e-14
1.02363e-14
1.02228e-14
1.02092e-14
1.01944e-14
1.01816e-14
1.01664e-14
1.01527e-14
1.01371e-14
1.01213e-14
1.01063e-14
1.0091e-14
1.0078e-14
1.00624e-14
1.00458e-14
1.00325e-14
1.00169e-14
1.00022e-14
9.9927e-15
9.98444e-15
9.9722e-15
9.96205e-15
9.94524e-15
9.93916e-15
9.93523e-15
9.93934e-15
1.04907e-14
1.04786e-14
1.04657e-14
1.04543e-14
1.04442e-14
1.04355e-14
1.04283e-14
1.04225e-14
1.04173e-14
1.04117e-14
1.04054e-14
1.0398e-14
1.03898e-14
1.0381e-14
1.03708e-14
1.03601e-14
1.03488e-14
1.03377e-14
1.0325e-14
1.03131e-14
1.03012e-14
1.02882e-14
1.02745e-14
1.02615e-14
1.02488e-14
1.02355e-14
1.02218e-14
1.02085e-14
1.01931e-14
1.01804e-14
1.01656e-14
1.0152e-14
1.01368e-14
1.01203e-14
1.01053e-14
1.00902e-14
1.00781e-14
1.00623e-14
1.00457e-14
1.00323e-14
1.00166e-14
1.0002e-14
9.99256e-15
9.98465e-15
9.97201e-15
9.96207e-15
9.94406e-15
9.93914e-15
9.93556e-15
9.93891e-15
1.04753e-14
1.04671e-14
1.04579e-14
1.04489e-14
1.044e-14
1.04316e-14
1.04238e-14
1.04171e-14
1.04111e-14
1.0405e-14
1.03985e-14
1.03912e-14
1.03831e-14
1.03748e-14
1.03651e-14
1.03551e-14
1.03446e-14
1.03333e-14
1.03213e-14
1.03096e-14
1.02976e-14
1.02848e-14
1.02723e-14
1.02598e-14
1.0247e-14
1.02335e-14
1.02208e-14
1.02074e-14
1.01925e-14
1.01788e-14
1.01643e-14
1.01511e-14
1.01357e-14
1.01194e-14
1.01054e-14
1.00906e-14
1.00775e-14
1.00626e-14
1.00455e-14
1.00309e-14
1.00164e-14
1.00015e-14
9.99173e-15
9.98359e-15
9.97177e-15
9.96217e-15
9.94474e-15
9.93911e-15
9.93536e-15
9.93845e-15
1.04604e-14
1.04548e-14
1.04483e-14
1.04414e-14
1.04339e-14
1.04263e-14
1.04187e-14
1.04117e-14
1.04051e-14
1.03984e-14
1.03916e-14
1.03842e-14
1.03765e-14
1.03681e-14
1.03585e-14
1.03492e-14
1.03398e-14
1.03287e-14
1.03167e-14
1.03055e-14
1.02934e-14
1.02814e-14
1.02696e-14
1.02574e-14
1.02446e-14
1.02314e-14
1.02188e-14
1.02056e-14
1.01917e-14
1.0178e-14
1.01636e-14
1.015e-14
1.01342e-14
1.01188e-14
1.01052e-14
1.00899e-14
1.00763e-14
1.00613e-14
1.00461e-14
1.00301e-14
1.00153e-14
1.00014e-14
9.99112e-15
9.98263e-15
9.97137e-15
9.96235e-15
9.94353e-15
9.93849e-15
9.93455e-15
9.9381e-15
1.04462e-14
1.04423e-14
1.04376e-14
1.04323e-14
1.04261e-14
1.04194e-14
1.04123e-14
1.04053e-14
1.03985e-14
1.03917e-14
1.03845e-14
1.03772e-14
1.03695e-14
1.03611e-14
1.0352e-14
1.03431e-14
1.03341e-14
1.03237e-14
1.0311e-14
1.0301e-14
1.02893e-14
1.02789e-14
1.02665e-14
1.02548e-14
1.02427e-14
1.02296e-14
1.02168e-14
1.02035e-14
1.01906e-14
1.01771e-14
1.01626e-14
1.01494e-14
1.01325e-14
1.01193e-14
1.01044e-14
1.00886e-14
1.00757e-14
1.00604e-14
1.00451e-14
1.0028e-14
1.00143e-14
1.00018e-14
9.99152e-15
9.9824e-15
9.97107e-15
9.96274e-15
9.94232e-15
9.93718e-15
9.93361e-15
9.93743e-15
1.04325e-14
1.04297e-14
1.04261e-14
1.0422e-14
1.0417e-14
1.04112e-14
1.04047e-14
1.03979e-14
1.03912e-14
1.03843e-14
1.03773e-14
1.03699e-14
1.0362e-14
1.03531e-14
1.03457e-14
1.0336e-14
1.03271e-14
1.03172e-14
1.03066e-14
1.02958e-14
1.0284e-14
1.02741e-14
1.02628e-14
1.02518e-14
1.02404e-14
1.02274e-14
1.02146e-14
1.02022e-14
1.01894e-14
1.01754e-14
1.01607e-14
1.0149e-14
1.01319e-14
1.01192e-14
1.01057e-14
1.0089e-14
1.00751e-14
1.00602e-14
1.00449e-14
1.00286e-14
1.00132e-14
1.00021e-14
9.99192e-15
9.98298e-15
9.9708e-15
9.96196e-15
9.94333e-15
9.93597e-15
9.93341e-15
9.93653e-15
1.0419e-14
1.04169e-14
1.04142e-14
1.04109e-14
1.04068e-14
1.04016e-14
1.03957e-14
1.03895e-14
1.03831e-14
1.03764e-14
1.03692e-14
1.03621e-14
1.03546e-14
1.03466e-14
1.0339e-14
1.03296e-14
1.03197e-14
1.03102e-14
1.0301e-14
1.02912e-14
1.02804e-14
1.02692e-14
1.02587e-14
1.02486e-14
1.0237e-14
1.02245e-14
1.02117e-14
1.02007e-14
1.01879e-14
1.01736e-14
1.01593e-14
1.01459e-14
1.01336e-14
1.01176e-14
1.01043e-14
1.00883e-14
1.00745e-14
1.00588e-14
1.00456e-14
1.00266e-14
1.00123e-14
1.00014e-14
9.99252e-15
9.98202e-15
9.97047e-15
9.96179e-15
9.94318e-15
9.93586e-15
9.93313e-15
9.93536e-15
1.04055e-14
1.04039e-14
1.04017e-14
1.0399e-14
1.03955e-14
1.03909e-14
1.03858e-14
1.03799e-14
1.0374e-14
1.03675e-14
1.03607e-14
1.03547e-14
1.03468e-14
1.0339e-14
1.03315e-14
1.03226e-14
1.03131e-14
1.03044e-14
1.0295e-14
1.0286e-14
1.02765e-14
1.02662e-14
1.02538e-14
1.02445e-14
1.02322e-14
1.02208e-14
1.02105e-14
1.01974e-14
1.01835e-14
1.01716e-14
1.01576e-14
1.01424e-14
1.0132e-14
1.01171e-14
1.01044e-14
1.00863e-14
1.00739e-14
1.00593e-14
1.00444e-14
1.00297e-14
1.00125e-14
1.00007e-14
9.99348e-15
9.98102e-15
9.96739e-15
9.96055e-15
9.94352e-15
9.93402e-15
9.93278e-15
9.93618e-15
1.03919e-14
1.03906e-14
1.03889e-14
1.03867e-14
1.03838e-14
1.03799e-14
1.03752e-14
1.03701e-14
1.03644e-14
1.03584e-14
1.03519e-14
1.03451e-14
1.03378e-14
1.03308e-14
1.03239e-14
1.03152e-14
1.03063e-14
1.02979e-14
1.02885e-14
1.02795e-14
1.02715e-14
1.02627e-14
1.02473e-14
1.02401e-14
1.0231e-14
1.02166e-14
1.02055e-14
1.01938e-14
1.01789e-14
1.01698e-14
1.01556e-14
1.01417e-14
1.01285e-14
1.01171e-14
1.01058e-14
1.00842e-14
1.00721e-14
1.00588e-14
1.0043e-14
1.00281e-14
1.00128e-14
1.00032e-14
9.99154e-15
9.97995e-15
9.96518e-15
9.9572e-15
9.94789e-15
9.93027e-15
9.93233e-15
9.93859e-15
1.03781e-14
1.0377e-14
1.03756e-14
1.03737e-14
1.03712e-14
1.0368e-14
1.03639e-14
1.03591e-14
1.0354e-14
1.03484e-14
1.03425e-14
1.03366e-14
1.03291e-14
1.03221e-14
1.03156e-14
1.03078e-14
1.02984e-14
1.02918e-14
1.02811e-14
1.02729e-14
1.0264e-14
1.02555e-14
1.02441e-14
1.02346e-14
1.02244e-14
1.02124e-14
1.02003e-14
1.01906e-14
1.01779e-14
1.01685e-14
1.0153e-14
1.01406e-14
1.01276e-14
1.01148e-14
1.01049e-14
1.0081e-14
1.00683e-14
1.00576e-14
1.00424e-14
1.00281e-14
1.00145e-14
1.00033e-14
9.99025e-15
9.97769e-15
9.9698e-15
9.95698e-15
9.94527e-15
9.93216e-15
9.9316e-15
9.93516e-15
1.03642e-14
1.03634e-14
1.03621e-14
1.03605e-14
1.03584e-14
1.03555e-14
1.0352e-14
1.03481e-14
1.03432e-14
1.03379e-14
1.03321e-14
1.03274e-14
1.0321e-14
1.03133e-14
1.03068e-14
1.02989e-14
1.02912e-14
1.02829e-14
1.02731e-14
1.02651e-14
1.02566e-14
1.025e-14
1.02394e-14
1.02303e-14
1.02203e-14
1.02103e-14
1.01956e-14
1.01877e-14
1.01761e-14
1.0168e-14
1.01509e-14
1.01427e-14
1.01256e-14
1.01124e-14
1.01027e-14
1.00828e-14
1.00719e-14
1.00565e-14
1.00416e-14
1.00307e-14
1.00143e-14
1.00022e-14
9.98885e-15
9.98008e-15
9.96693e-15
9.9576e-15
9.9426e-15
9.93273e-15
9.93258e-15
9.92849e-15
1.035e-14
1.03493e-14
1.03482e-14
1.0347e-14
1.03451e-14
1.03425e-14
1.03392e-14
1.03358e-14
1.03318e-14
1.03269e-14
1.03211e-14
1.03171e-14
1.03114e-14
1.0304e-14
1.0297e-14
1.02886e-14
1.02817e-14
1.02746e-14
1.0267e-14
1.02616e-14
1.02534e-14
1.02439e-14
1.02334e-14
1.02255e-14
1.02172e-14
1.02094e-14
1.01888e-14
1.01834e-14
1.01734e-14
1.01626e-14
1.01498e-14
1.01388e-14
1.01219e-14
1.01093e-14
1.01019e-14
1.00884e-14
1.00714e-14
1.00533e-14
1.00403e-14
1.00332e-14
1.00109e-14
1.00018e-14
9.98959e-15
9.9824e-15
9.96712e-15
9.95965e-15
9.94234e-15
9.93089e-15
9.93557e-15
9.92792e-15
1.0336e-14
1.03353e-14
1.03345e-14
1.03333e-14
1.03317e-14
1.03294e-14
1.03268e-14
1.03239e-14
1.032e-14
1.03157e-14
1.03114e-14
1.03056e-14
1.03004e-14
1.02945e-14
1.0288e-14
1.02809e-14
1.02732e-14
1.02658e-14
1.02583e-14
1.02511e-14
1.0245e-14
1.02378e-14
1.02301e-14
1.02212e-14
1.02134e-14
1.02019e-14
1.01876e-14
1.018e-14
1.01685e-14
1.01578e-14
1.01477e-14
1.01367e-14
1.01209e-14
1.01089e-14
1.0099e-14
1.00861e-14
1.00709e-14
1.00565e-14
1.00392e-14
1.00315e-14
1.00125e-14
1.00051e-14
9.99409e-15
9.98509e-15
9.96998e-15
9.96049e-15
9.9458e-15
9.9311e-15
9.92989e-15
9.92682e-15
1.03217e-14
1.03212e-14
1.03204e-14
1.03194e-14
1.03179e-14
1.03158e-14
1.03133e-14
1.03107e-14
1.03074e-14
1.03035e-14
1.02995e-14
1.02946e-14
1.02897e-14
1.02849e-14
1.02786e-14
1.0273e-14
1.02643e-14
1.02546e-14
1.02505e-14
1.0244e-14
1.02367e-14
1.02283e-14
1.02229e-14
1.02167e-14
1.02061e-14
1.01952e-14
1.01828e-14
1.0171e-14
1.01625e-14
1.01543e-14
1.01471e-14
1.01354e-14
1.01201e-14
1.01049e-14
1.00987e-14
1.00849e-14
1.00704e-14
1.00581e-14
1.00401e-14
1.00305e-14
1.00156e-14
1.00087e-14
9.99446e-15
9.9881e-15
9.96972e-15
9.96288e-15
9.94687e-15
9.93491e-15
9.9262e-15
9.92563e-15
1.03074e-14
1.03069e-14
1.03063e-14
1.03054e-14
1.03042e-14
1.03025e-14
1.02998e-14
1.02977e-14
1.02956e-14
1.02925e-14
1.02881e-14
1.02849e-14
1.028e-14
1.02741e-14
1.0267e-14
1.02624e-14
1.02562e-14
1.02481e-14
1.02426e-14
1.02356e-14
1.02286e-14
1.02199e-14
1.02157e-14
1.02087e-14
1.01996e-14
1.01887e-14
1.01764e-14
1.01657e-14
1.01598e-14
1.01503e-14
1.01415e-14
1.01312e-14
1.01223e-14
1.01051e-14
1.00998e-14
1.00868e-14
1.007e-14
1.00613e-14
1.00402e-14
1.00284e-14
1.00176e-14
1.00104e-14
9.99433e-15
9.9914e-15
9.97219e-15
9.96372e-15
9.94713e-15
9.93582e-15
9.92534e-15
9.93006e-15
1.02931e-14
1.02927e-14
1.02922e-14
1.02915e-14
1.02905e-14
1.02891e-14
1.02871e-14
1.02848e-14
1.02821e-14
1.02787e-14
1.02742e-14
1.02713e-14
1.02673e-14
1.02622e-14
1.02567e-14
1.02524e-14
1.02481e-14
1.0241e-14
1.0234e-14
1.02263e-14
1.02213e-14
1.02147e-14
1.02103e-14
1.02032e-14
1.01921e-14
1.01826e-14
1.01744e-14
1.01659e-14
1.01583e-14
1.01446e-14
1.0135e-14
1.01256e-14
1.01174e-14
1.01027e-14
1.00892e-14
1.00786e-14
1.00656e-14
1.00641e-14
1.00409e-14
1.00365e-14
1.00194e-14
1.00089e-14
9.99612e-15
9.9931e-15
9.97386e-15
9.97023e-15
9.95537e-15
9.93668e-15
9.92276e-15
9.92942e-15
1.02785e-14
1.02782e-14
1.02778e-14
1.0277e-14
1.02761e-14
1.02752e-14
1.02736e-14
1.02716e-14
1.02695e-14
1.0267e-14
1.02635e-14
1.02599e-14
1.02563e-14
1.02525e-14
1.02488e-14
1.02423e-14
1.02363e-14
1.02331e-14
1.02273e-14
1.02206e-14
1.02132e-14
1.02067e-14
1.01997e-14
1.01913e-14
1.01826e-14
1.01752e-14
1.01676e-14
1.01595e-14
1.01507e-14
1.01406e-14
1.01316e-14
1.01222e-14
1.01092e-14
1.00997e-14
1.00862e-14
1.00704e-14
1.00624e-14
1.00544e-14
1.00397e-14
1.0036e-14
1.00204e-14
1.0013e-14
1.00047e-14
9.99465e-15
9.97859e-15
9.96522e-15
9.94563e-15
9.93603e-15
9.92249e-15
9.92589e-15
1.0264e-14
1.02637e-14
1.02634e-14
1.02627e-14
1.02617e-14
1.02608e-14
1.02595e-14
1.0258e-14
1.02563e-14
1.02537e-14
1.0251e-14
1.02479e-14
1.02444e-14
1.0241e-14
1.02372e-14
1.02327e-14
1.02276e-14
1.02221e-14
1.02162e-14
1.02079e-14
1.0203e-14
1.01987e-14
1.01881e-14
1.01807e-14
1.01743e-14
1.01676e-14
1.01608e-14
1.01531e-14
1.01429e-14
1.01357e-14
1.01282e-14
1.01148e-14
1.01057e-14
1.00956e-14
1.00795e-14
1.00604e-14
1.00602e-14
1.0052e-14
1.00388e-14
1.00385e-14
1.00205e-14
1.00173e-14
1.00045e-14
9.99669e-15
9.983e-15
9.96614e-15
9.93942e-15
9.93806e-15
9.92464e-15
9.93266e-15
1.0249e-14
1.02487e-14
1.02484e-14
1.0248e-14
1.02472e-14
1.02463e-14
1.02456e-14
1.02443e-14
1.02428e-14
1.02411e-14
1.0239e-14
1.02353e-14
1.02312e-14
1.02299e-14
1.02258e-14
1.02239e-14
1.02189e-14
1.02117e-14
1.02045e-14
1.02002e-14
1.01981e-14
1.01862e-14
1.0178e-14
1.01693e-14
1.0165e-14
1.01595e-14
1.01541e-14
1.01477e-14
1.01338e-14
1.01401e-14
1.01252e-14
1.01109e-14
1.00999e-14
1.00907e-14
1.00759e-14
1.00599e-14
1.00594e-14
1.00554e-14
1.00356e-14
1.00385e-14
1.00236e-14
1.00182e-14
9.99889e-15
9.99924e-15
9.99117e-15
9.9751e-15
9.95058e-15
9.94542e-15
9.92579e-15
9.93013e-15
1.02343e-14
1.02341e-14
1.02338e-14
1.02334e-14
1.02328e-14
1.0232e-14
1.0231e-14
1.02298e-14
1.02285e-14
1.02271e-14
1.02248e-14
1.02224e-14
1.02195e-14
1.02168e-14
1.0214e-14
1.02105e-14
1.02063e-14
1.01989e-14
1.01954e-14
1.0188e-14
1.01843e-14
1.01772e-14
1.01698e-14
1.01628e-14
1.01566e-14
1.01506e-14
1.01486e-14
1.01406e-14
1.01334e-14
1.01267e-14
1.01165e-14
1.01053e-14
1.00947e-14
1.00873e-14
1.00723e-14
1.00659e-14
1.00581e-14
1.00525e-14
1.00401e-14
1.00361e-14
1.00208e-14
1.00195e-14
1.00079e-14
1.00026e-14
9.98856e-15
9.97358e-15
9.95067e-15
9.95297e-15
9.92565e-15
9.92786e-15
1.02186e-14
1.02184e-14
1.02181e-14
1.02178e-14
1.02172e-14
1.02164e-14
1.02154e-14
1.0214e-14
1.02125e-14
1.02117e-14
1.02103e-14
1.02073e-14
1.0205e-14
1.02033e-14
1.02018e-14
1.01978e-14
1.01943e-14
1.01927e-14
1.01853e-14
1.01779e-14
1.01761e-14
1.01675e-14
1.01605e-14
1.01546e-14
1.01515e-14
1.0141e-14
1.01355e-14
1.01332e-14
1.01233e-14
1.01148e-14
1.01078e-14
1.0099e-14
1.0088e-14
1.00866e-14
1.00718e-14
1.00641e-14
1.00577e-14
1.00475e-14
1.00391e-14
1.00356e-14
1.00128e-14
1.00221e-14
1.00128e-14
1.0007e-14
9.98849e-15
9.97229e-15
9.94878e-15
9.9496e-15
9.91974e-15
9.93474e-15
1.02032e-14
1.02031e-14
1.02028e-14
1.02025e-14
1.02021e-14
1.02013e-14
1.02003e-14
1.01986e-14
1.01978e-14
1.01966e-14
1.01947e-14
1.01933e-14
1.01908e-14
1.01868e-14
1.01837e-14
1.0182e-14
1.01791e-14
1.01755e-14
1.01724e-14
1.01676e-14
1.01638e-14
1.0154e-14
1.01483e-14
1.01418e-14
1.01324e-14
1.01256e-14
1.01184e-14
1.01179e-14
1.01116e-14
1.01011e-14
1.00969e-14
1.00893e-14
1.00769e-14
1.0077e-14
1.00685e-14
1.00637e-14
1.00589e-14
1.00475e-14
1.00369e-14
1.0039e-14
1.00129e-14
1.00235e-14
1.00154e-14
1.00186e-14
9.99378e-15
9.97688e-15
9.96115e-15
9.9544e-15
9.92511e-15
9.93233e-15
1.01877e-14
1.01875e-14
1.01873e-14
1.0187e-14
1.01867e-14
1.01861e-14
1.01854e-14
1.0185e-14
1.01834e-14
1.01817e-14
1.01794e-14
1.01792e-14
1.01788e-14
1.0177e-14
1.01751e-14
1.01697e-14
1.01654e-14
1.0162e-14
1.0158e-14
1.01526e-14
1.01478e-14
1.01386e-14
1.01369e-14
1.01329e-14
1.01288e-14
1.01198e-14
1.01121e-14
1.01126e-14
1.01057e-14
1.00973e-14
1.009e-14
1.00853e-14
1.00763e-14
1.00713e-14
1.00633e-14
1.00573e-14
1.00543e-14
1.00472e-14
1.00403e-14
1.00236e-14
1.00202e-14
1.00246e-14
1.00163e-14
1.00178e-14
1.00019e-14
9.98336e-15
9.95991e-15
9.96213e-15
9.92939e-15
9.93042e-15
1.01719e-14
1.01718e-14
1.01715e-14
1.01712e-14
1.01708e-14
1.01702e-14
1.01694e-14
1.01692e-14
1.01689e-14
1.01674e-14
1.01661e-14
1.01649e-14
1.01621e-14
1.01584e-14
1.01559e-14
1.01511e-14
1.01464e-14
1.01494e-14
1.01473e-14
1.01441e-14
1.0142e-14
1.01377e-14
1.01298e-14
1.01237e-14
1.01146e-14
1.01116e-14
1.01093e-14
1.01122e-14
1.01e-14
1.00924e-14
1.0088e-14
1.00719e-14
1.0073e-14
1.00668e-14
1.00568e-14
1.00494e-14
1.00439e-14
1.00462e-14
1.0042e-14
1.00244e-14
1.00375e-14
1.00283e-14
1.00335e-14
1.00211e-14
9.99619e-15
9.97072e-15
9.96088e-15
9.95685e-15
9.94224e-15
9.92857e-15
1.01562e-14
1.01561e-14
1.01559e-14
1.01555e-14
1.01552e-14
1.01547e-14
1.01542e-14
1.01533e-14
1.01521e-14
1.01507e-14
1.01489e-14
1.01467e-14
1.01441e-14
1.01408e-14
1.01398e-14
1.01379e-14
1.01352e-14
1.01322e-14
1.01319e-14
1.01313e-14
1.01273e-14
1.01261e-14
1.01173e-14
1.0112e-14
1.0107e-14
1.01018e-14
1.00993e-14
1.0095e-14
1.00884e-14
1.00838e-14
1.00773e-14
1.00693e-14
1.00665e-14
1.00645e-14
1.00581e-14
1.00557e-14
1.00508e-14
1.00476e-14
1.00416e-14
1.00404e-14
1.00386e-14
1.00287e-14
1.00286e-14
1.00164e-14
9.99868e-15
9.98133e-15
9.97335e-15
9.95267e-15
9.92227e-15
9.92544e-15
1.01405e-14
1.01405e-14
1.01403e-14
1.01401e-14
1.01397e-14
1.01392e-14
1.01388e-14
1.01377e-14
1.01368e-14
1.01357e-14
1.0133e-14
1.01298e-14
1.01305e-14
1.0131e-14
1.01289e-14
1.01251e-14
1.01206e-14
1.0119e-14
1.0117e-14
1.01139e-14
1.01096e-14
1.01111e-14
1.01016e-14
1.00979e-14
1.00931e-14
1.00871e-14
1.00838e-14
1.00801e-14
1.00739e-14
1.00769e-14
1.00674e-14
1.00618e-14
1.0059e-14
1.00563e-14
1.00683e-14
1.00688e-14
1.00569e-14
1.00503e-14
1.00394e-14
1.00571e-14
1.00297e-14
1.00266e-14
1.00136e-14
1.00128e-14
1.0003e-14
9.9917e-15
9.96966e-15
9.94954e-15
9.92038e-15
9.9294e-15
1.01243e-14
1.01241e-14
1.0124e-14
1.01238e-14
1.01236e-14
1.01234e-14
1.01228e-14
1.01221e-14
1.0122e-14
1.01216e-14
1.01201e-14
1.01184e-14
1.01147e-14
1.01118e-14
1.01129e-14
1.01132e-14
1.0111e-14
1.01101e-14
1.01065e-14
1.01009e-14
1.00976e-14
1.00935e-14
1.00899e-14
1.00859e-14
1.00811e-14
1.00754e-14
1.00684e-14
1.00747e-14
1.00659e-14
1.00609e-14
1.00628e-14
1.00555e-14
1.00537e-14
1.00569e-14
1.00526e-14
1.00536e-14
1.00487e-14
1.00553e-14
1.00419e-14
1.00454e-14
1.00355e-14
1.00393e-14
1.00231e-14
9.99966e-15
9.99771e-15
1.00053e-14
9.96672e-15
9.9534e-15
9.92519e-15
9.94469e-15
1.01101e-14
1.011e-14
1.011e-14
1.01099e-14
1.01096e-14
1.01095e-14
1.01094e-14
1.01093e-14
1.01087e-14
1.01085e-14
1.01074e-14
1.01065e-14
1.01048e-14
1.01031e-14
1.01016e-14
1.01008e-14
1.00965e-14
1.00928e-14
1.00883e-14
1.00827e-14
1.00807e-14
1.00783e-14
1.00785e-14
1.00756e-14
1.00705e-14
1.00662e-14
1.00606e-14
1.00573e-14
1.00527e-14
1.00501e-14
1.00485e-14
1.00424e-14
1.00442e-14
1.00473e-14
1.00428e-14
1.00432e-14
1.00441e-14
1.004e-14
1.00361e-14
1.00397e-14
1.00362e-14
1.00371e-14
1.0025e-14
1.00109e-14
1.00016e-14
9.97771e-15
9.96511e-15
9.95505e-15
9.90784e-15
9.91778e-15
1.0095e-14
1.00948e-14
1.00947e-14
1.00946e-14
1.00945e-14
1.00943e-14
1.00939e-14
1.00938e-14
1.00931e-14
1.00935e-14
1.00943e-14
1.00943e-14
1.00923e-14
1.00907e-14
1.00898e-14
1.00861e-14
1.00841e-14
1.00792e-14
1.00745e-14
1.00724e-14
1.00647e-14
1.00693e-14
1.00674e-14
1.00621e-14
1.00564e-14
1.00596e-14
1.00469e-14
1.00421e-14
1.00434e-14
1.0047e-14
1.00345e-14
1.00186e-14
1.00307e-14
1.00357e-14
1.00403e-14
1.00349e-14
1.00429e-14
1.00241e-14
1.00261e-14
1.00374e-14
1.00349e-14
1.00461e-14
1.00375e-14
1.00091e-14
1.00096e-14
9.98878e-15
9.96299e-15
9.95461e-15
9.90766e-15
9.9084e-15
1.00785e-14
1.00785e-14
1.00785e-14
1.00783e-14
1.00782e-14
1.0078e-14
1.00782e-14
1.0079e-14
1.00789e-14
1.00775e-14
1.0076e-14
1.00741e-14
1.00742e-14
1.00727e-14
1.00696e-14
1.00694e-14
1.00678e-14
1.00618e-14
1.00607e-14
1.00594e-14
1.00527e-14
1.00539e-14
1.00537e-14
1.00537e-14
1.00449e-14
1.00381e-14
1.00362e-14
1.00247e-14
1.00291e-14
1.00381e-14
1.00252e-14
1.00114e-14
1.00265e-14
1.00242e-14
1.00246e-14
1.00183e-14
1.0036e-14
1.00262e-14
1.00431e-14
1.00427e-14
1.00353e-14
1.00336e-14
1.00294e-14
9.9964e-15
1.00158e-14
1.00015e-14
9.9589e-15
9.93784e-15
9.89867e-15
9.89774e-15
1.0062e-14
1.00619e-14
1.00619e-14
1.0062e-14
1.0062e-14
1.00617e-14
1.00611e-14
1.00611e-14
1.00627e-14
1.00616e-14
1.00602e-14
1.00601e-14
1.00592e-14
1.00574e-14
1.00556e-14
1.00544e-14
1.00517e-14
1.005e-14
1.00481e-14
1.00462e-14
1.00446e-14
1.00455e-14
1.00389e-14
1.00385e-14
1.00331e-14
1.00279e-14
1.00231e-14
1.00207e-14
1.00242e-14
1.00354e-14
1.00231e-14
1.00157e-14
1.00122e-14
1.00141e-14
1.00144e-14
1.00272e-14
1.00245e-14
1.00086e-14
1.00399e-14
1.00351e-14
1.00456e-14
1.00338e-14
1.00433e-14
1.00038e-14
1.00074e-14
9.99004e-15
9.95308e-15
9.93948e-15
9.90696e-15
9.90134e-15
1.00432e-14
1.00432e-14
1.00431e-14
1.00428e-14
1.00429e-14
1.00427e-14
1.00428e-14
1.00428e-14
1.00426e-14
1.00423e-14
1.00419e-14
1.00422e-14
1.00433e-14
1.00408e-14
1.00385e-14
1.00359e-14
1.00369e-14
1.00376e-14
1.00332e-14
1.00302e-14
1.00251e-14
1.00187e-14
1.00222e-14
1.00245e-14
1.00195e-14
1.00127e-14
1.00098e-14
1.00083e-14
1.00124e-14
1.00163e-14
1.00103e-14
1.00014e-14
9.98447e-15
1.00041e-14
1.00151e-14
1.00011e-14
1.00247e-14
1.00195e-14
1.00363e-14
1.00302e-14
1.00477e-14
1.00349e-14
1.00327e-14
1.00117e-14
1.00066e-14
9.98483e-15
9.94453e-15
9.95179e-15
9.92363e-15
9.9189e-15
1.00277e-14
1.00276e-14
1.00275e-14
1.00274e-14
1.00272e-14
1.00271e-14
1.0027e-14
1.00267e-14
1.00264e-14
1.00262e-14
1.0025e-14
1.00259e-14
1.00248e-14
1.00234e-14
1.00238e-14
1.00241e-14
1.00245e-14
1.00229e-14
1.00232e-14
1.00237e-14
1.00185e-14
1.00133e-14
1.00135e-14
1.00135e-14
1.00131e-14
1.00082e-14
1.00069e-14
1.00014e-14
1.00013e-14
1.00049e-14
1.00032e-14
9.99962e-15
9.99858e-15
1.00067e-14
1.0009e-14
9.97921e-15
9.98603e-15
1.00087e-14
1.00099e-14
1.00202e-14
1.0029e-14
1.00423e-14
1.00344e-14
9.99912e-15
1.00194e-14
9.98635e-15
9.95361e-15
9.94139e-15
9.91447e-15
9.89077e-15
1.00119e-14
1.00118e-14
1.00117e-14
1.00114e-14
1.00109e-14
1.00109e-14
1.00107e-14
1.00104e-14
1.00108e-14
1.001e-14
1.00105e-14
1.00098e-14
1.0009e-14
1.00066e-14
1.00089e-14
1.00095e-14
1.00091e-14
1.00085e-14
1.00113e-14
1.00105e-14
1.00093e-14
1.00031e-14
1.00058e-14
1.00045e-14
1.00024e-14
9.99719e-15
9.99042e-15
9.98379e-15
1.00087e-14
1.00093e-14
1.00011e-14
9.99145e-15
9.99385e-15
9.99811e-15
9.99632e-15
9.98754e-15
9.99891e-15
1.00149e-14
1.00024e-14
1.00115e-14
1.00179e-14
1.00228e-14
1.00235e-14
9.99457e-15
1.00155e-14
9.97588e-15
9.94431e-15
9.93597e-15
9.9188e-15
9.88936e-15
1.00015e-14
1.00013e-14
1.00012e-14
1.00009e-14
1.00004e-14
9.99984e-15
9.99917e-15
9.99841e-15
9.99757e-15
9.99669e-15
9.99429e-15
9.9941e-15
9.99535e-15
9.99564e-15
9.99604e-15
9.99612e-15
9.99814e-15
1.00032e-14
1.00037e-14
1.00008e-14
9.99824e-15
9.99554e-15
9.99678e-15
9.99785e-15
9.99436e-15
9.99359e-15
1.0002e-14
1.00051e-14
9.99965e-15
9.98838e-15
1.00028e-14
1.0018e-14
1.00037e-14
1.00082e-14
1.00111e-14
1.00042e-14
1.00058e-14
9.9913e-15
9.99994e-15
1.00057e-14
1.00081e-14
1.002e-14
1.00186e-14
9.99695e-15
9.98967e-15
9.98363e-15
9.94953e-15
9.96709e-15
9.92651e-15
9.90947e-15
9.98748e-15
9.98741e-15
9.98745e-15
9.98736e-15
9.98716e-15
9.98661e-15
9.98673e-15
9.98628e-15
9.98564e-15
9.98436e-15
9.98436e-15
9.98418e-15
9.98375e-15
9.98301e-15
9.983e-15
9.98406e-15
9.98335e-15
9.98452e-15
9.98659e-15
9.98719e-15
9.987e-15
9.98588e-15
9.98911e-15
9.99201e-15
9.98945e-15
9.99059e-15
9.99726e-15
9.99848e-15
1.00078e-14
1.00038e-14
1.00025e-14
9.99933e-15
9.99722e-15
1.00039e-14
1.00005e-14
1.00054e-14
1.00016e-14
1.00088e-14
9.99263e-15
9.99173e-15
1.00059e-14
1.0012e-14
1.00055e-14
1.00065e-14
1.00064e-14
9.9857e-15
9.9588e-15
9.93779e-15
9.9247e-15
9.92387e-15
9.98148e-15
9.98134e-15
9.98139e-15
9.98129e-15
9.98112e-15
9.98154e-15
9.98177e-15
9.9817e-15
9.98204e-15
9.98186e-15
9.98181e-15
9.98278e-15
9.98183e-15
9.97954e-15
9.9803e-15
9.98112e-15
9.98121e-15
9.97998e-15
9.97976e-15
9.98474e-15
9.98739e-15
9.99125e-15
9.98506e-15
9.99092e-15
9.9991e-15
9.99337e-15
9.98903e-15
9.98479e-15
9.99907e-15
9.99408e-15
9.99706e-15
1.00186e-14
1.0023e-14
1.0015e-14
1.00161e-14
1.0025e-14
1.00162e-14
1.0019e-14
9.99587e-15
9.98308e-15
9.99513e-15
1.00001e-14
1.00015e-14
9.99451e-15
9.97828e-15
9.95753e-15
9.96008e-15
9.94746e-15
9.93505e-15
9.9299e-15
9.97336e-15
9.97332e-15
9.97325e-15
9.97305e-15
9.97275e-15
9.97253e-15
9.97247e-15
9.97283e-15
9.97282e-15
9.97172e-15
9.97124e-15
9.97143e-15
9.97151e-15
9.97035e-15
9.9704e-15
9.97276e-15
9.97065e-15
9.97031e-15
9.96983e-15
9.9711e-15
9.97055e-15
9.97517e-15
9.9792e-15
9.98424e-15
9.98418e-15
9.98424e-15
9.97925e-15
9.96478e-15
9.9822e-15
9.99297e-15
9.99893e-15
1.00105e-14
1.00081e-14
1.00079e-14
1.00204e-14
1.00369e-14
1.00101e-14
9.99645e-15
9.98143e-15
1.00022e-14
9.99345e-15
9.99216e-15
9.99113e-15
9.99026e-15
9.98102e-15
9.97784e-15
9.97071e-15
9.95704e-15
9.9395e-15
9.9584e-15
9.96665e-15
9.96671e-15
9.96681e-15
9.96704e-15
9.96763e-15
9.96813e-15
9.96886e-15
9.9696e-15
9.97118e-15
9.97202e-15
9.97336e-15
9.97328e-15
9.97197e-15
9.96979e-15
9.97033e-15
9.9642e-15
9.96475e-15
9.96318e-15
9.96383e-15
9.96689e-15
9.96826e-15
9.96836e-15
9.97335e-15
9.97254e-15
9.96745e-15
9.97174e-15
9.97422e-15
9.96625e-15
9.97588e-15
9.97628e-15
9.97611e-15
9.96842e-15
9.98595e-15
1.00043e-14
1.00076e-14
9.99439e-15
9.97601e-15
9.97555e-15
9.97084e-15
9.96139e-15
9.99439e-15
9.98367e-15
9.98028e-15
9.99428e-15
9.97825e-15
9.97807e-15
9.98598e-15
9.96437e-15
9.95048e-15
9.9409e-15
9.95451e-15
9.95448e-15
9.95445e-15
9.9544e-15
9.95401e-15
9.9542e-15
9.95417e-15
9.95392e-15
9.95354e-15
9.95318e-15
9.9528e-15
9.95238e-15
9.95192e-15
9.9519e-15
9.95277e-15
9.94785e-15
9.94764e-15
9.94768e-15
9.94773e-15
9.94776e-15
9.94555e-15
9.94155e-15
9.94643e-15
9.94852e-15
9.93959e-15
9.94549e-15
9.95153e-15
9.95494e-15
9.95864e-15
9.96275e-15
9.97111e-15
9.95816e-15
9.96076e-15
9.97924e-15
9.9902e-15
9.98101e-15
9.96833e-15
9.96411e-15
9.96968e-15
9.98924e-15
9.97409e-15
9.98037e-15
9.99766e-15
9.97672e-15
9.95916e-15
9.97114e-15
9.95109e-15
9.96609e-15
9.96056e-15
9.96678e-15
9.93687e-15
9.93684e-15
9.93696e-15
9.93697e-15
9.93708e-15
9.93768e-15
9.93838e-15
9.93878e-15
9.93759e-15
9.93789e-15
9.93908e-15
9.93725e-15
9.93524e-15
9.93189e-15
9.92642e-15
9.92779e-15
9.92874e-15
9.93125e-15
9.93127e-15
9.9319e-15
9.93404e-15
9.93089e-15
9.94085e-15
9.94344e-15
9.93829e-15
9.94131e-15
9.95031e-15
9.94089e-15
9.9402e-15
9.95022e-15
9.95513e-15
9.94902e-15
9.94271e-15
9.94728e-15
9.94817e-15
9.9411e-15
9.93422e-15
9.92601e-15
9.94251e-15
9.95418e-15
9.94937e-15
9.94951e-15
9.95087e-15
9.95394e-15
9.95256e-15
9.95495e-15
9.97089e-15
9.99548e-15
9.96914e-15
9.99203e-15
9.92e-15
9.92005e-15
9.92009e-15
9.92022e-15
9.92058e-15
9.92085e-15
9.92074e-15
9.92065e-15
9.92078e-15
9.92116e-15
9.92015e-15
9.92059e-15
9.92e-15
9.92022e-15
9.9211e-15
9.91884e-15
9.91723e-15
9.91626e-15
9.91545e-15
9.91589e-15
9.91767e-15
9.91658e-15
9.91689e-15
9.91725e-15
9.91732e-15
9.91586e-15
9.92437e-15
9.93274e-15
9.93612e-15
9.93519e-15
9.93674e-15
9.94042e-15
9.93283e-15
9.92837e-15
9.92356e-15
9.92477e-15
9.92381e-15
9.92137e-15
9.93632e-15
9.92932e-15
9.87791e-15
9.91552e-15
9.93187e-15
9.93705e-15
9.94038e-15
9.93862e-15
9.91384e-15
9.93715e-15
9.98049e-15
9.97219e-15
9.89709e-15
9.89709e-15
9.89705e-15
9.89693e-15
9.89712e-15
9.89708e-15
9.89674e-15
9.8972e-15
9.89763e-15
9.89697e-15
9.89804e-15
9.89746e-15
9.89674e-15
9.89585e-15
9.89479e-15
9.89603e-15
9.89464e-15
9.89266e-15
9.89412e-15
9.89259e-15
9.89053e-15
9.88941e-15
9.89031e-15
9.89463e-15
9.89651e-15
9.89957e-15
9.89993e-15
9.9033e-15
9.90424e-15
9.89798e-15
9.90048e-15
9.90825e-15
9.89434e-15
9.89321e-15
9.91101e-15
9.92732e-15
9.90074e-15
9.89251e-15
9.90699e-15
9.909e-15
9.90359e-15
9.89067e-15
9.91189e-15
9.92289e-15
9.93474e-15
9.93551e-15
9.93719e-15
9.95385e-15
9.98115e-15
9.99003e-15