/*--------------------------------*- C++ -*----------------------------------*\
| =========                 |                                                 |
| \\      /  F ield         | OpenFOAM: The Open Source CFD Toolbox           |
|  \\    /   O peration     | Version:  v1912                                 |
|   \\  /    A nd           | Website:  www.openfoam.com                      |
|    \\/     M anipulation  |                                                 |
\*---------------------------------------------------------------------------*/
FoamFile
{
    version     2.0;
    format      ascii;
    class       volScalarField;
    location    "4000";
    object      epsilon;
}
// * * * * * * * * * * * * * * * * * * * * * * * * * * * * * * * * * * * * * //

dimensions      [0 2 -3 0 0 0 0];


internalField   nonuniform List<scalar> 
2500
(
0.0113805
0.0125692
0.0154825
0.0204044
0.0275073
0.0368458
0.0483596
0.0619007
0.077265
0.0942196
0.112523
0.131941
0.152256
0.173277
0.19484
0.216812
0.239091
0.261594
0.28426
0.307044
0.32991
0.352827
0.375771
0.398717
0.421641
0.444518
0.46732
0.490017
0.512577
0.534963
0.557137
0.579054
0.600668
0.621927
0.642774
0.663148
0.682982
0.702206
0.720742
0.738509
0.755417
0.771373
0.786272
0.800004
0.812441
0.823437
0.832815
0.840354
0.845774
0.848713
0.0125692
0.0100408
0.0100436
0.0117285
0.0147319
0.0188563
0.0239567
0.0299013
0.036562
0.0438147
0.0515432
0.0596417
0.0680178
0.0765935
0.0853058
0.0941057
0.102956
0.111831
0.12071
0.129582
0.138436
0.147266
0.156065
0.164829
0.17355
0.182223
0.19084
0.199392
0.20787
0.216263
0.224557
0.23274
0.240794
0.248704
0.256449
0.264009
0.27136
0.278478
0.285335
0.291903
0.29815
0.304041
0.309539
0.314604
0.31919
0.323243
0.326698
0.329475
0.331471
0.332554
0.0154825
0.0100436
0.00801587
0.00789951
0.00897197
0.0108631
0.0133653
0.016346
0.0197076
0.0233712
0.0272694
0.0313447
0.0355491
0.0398433
0.0441965
0.0485855
0.0529937
0.0574093
0.0618247
0.0662349
0.0706366
0.0750277
0.0794063
0.0837706
0.0881186
0.0924476
0.0967547
0.101036
0.105287
0.109503
0.113677
0.117803
0.121873
0.125877
0.129807
0.13365
0.137396
0.14103
0.144538
0.147906
0.151114
0.154146
0.15698
0.159595
0.161966
0.164064
0.165854
0.167294
0.168329
0.168891
0.0204044
0.0117285
0.00789951
0.00655004
0.006563
0.00739216
0.00875561
0.0104962
0.0125171
0.0147513
0.0171483
0.0196682
0.0222792
0.0249561
0.0276796
0.0304354
0.0332133
0.0360063
0.0388099
0.041621
0.0444378
0.0472588
0.0500827
0.0529084
0.0557342
0.0585582
0.0613782
0.0641914
0.0669944
0.0697833
0.0725536
0.0753003
0.0780176
0.0806991
0.0833373
0.0859244
0.0884514
0.0909088
0.0932862
0.095572
0.097754
0.0998187
0.101752
0.103537
0.105158
0.106593
0.107818
0.108804
0.109513
0.109898
0.0275073
0.0147319
0.00897197
0.006563
0.00584992
0.00606731
0.00684269
0.00798094
0.009371
0.0109437
0.0126522
0.0144627
0.0163499
0.018295
0.0202838
0.0223062
0.024355
0.0264253
0.028514
0.0306187
0.0327379
0.0348704
0.0370149
0.0391701
0.0413343
0.0435057
0.0456819
0.0478602
0.0500374
0.0522099
0.0543735
0.0565236
0.0586551
0.0607622
0.0628386
0.0648773
0.0668709
0.0688111
0.0706893
0.072496
0.0742211
0.0758536
0.0773821
0.0787937
0.0800745
0.0812084
0.0821763
0.0829549
0.0835147
0.0838185
0.0368458
0.0188563
0.0108631
0.00739216
0.00606731
0.0058438
0.00624005
0.0070153
0.00803839
0.00923221
0.0105482
0.0119542
0.0134279
0.0149536
0.0165202
0.0181202
0.0197485
0.0214015
0.0230771
0.0247738
0.0264903
0.0282257
0.0299789
0.0317484
0.0335327
0.0353297
0.0371371
0.038952
0.0407713
0.0425913
0.0444079
0.0462166
0.0480125
0.0497899
0.0515431
0.0532656
0.0549505
0.0565904
0.0581777
0.0597041
0.0611606
0.0625381
0.0638267
0.0650158
0.0660937
0.0670471
0.0678601
0.0685136
0.0689831
0.0692378
0.0483596
0.0239567
0.0133653
0.00875561
0.00684269
0.00624005
0.00633746
0.00684232
0.00760108
0.00852683
0.0095675
0.0106904
0.0118745
0.0131057
0.0143749
0.0156761
0.0170055
0.0183609
0.0197408
0.0211444
0.0225712
0.0240204
0.0254912
0.0269826
0.028493
0.0300205
0.0315628
0.0331172
0.0346805
0.036249
0.0378187
0.0393851
0.0409432
0.0424878
0.044013
0.0455127
0.0469803
0.0484091
0.0497918
0.0511209
0.0523884
0.0535863
0.0547058
0.0557378
0.0566722
0.0574977
0.0582009
0.0587655
0.0591709
0.0593906
0.0619007
0.0299013
0.016346
0.0104962
0.00798094
0.0070153
0.00684232
0.00711229
0.00764791
0.00835221
0.00916908
0.0100646
0.0110176
0.012015
0.0130482
0.0141121
0.0152036
0.016321
0.0174637
0.0186312
0.0198234
0.0210402
0.0222811
0.0235453
0.0248319
0.0261391
0.0274649
0.0288069
0.0301621
0.0315268
0.0328973
0.034269
0.0356371
0.0369965
0.0383413
0.0396657
0.0409632
0.0422273
0.0434511
0.0446276
0.0457493
0.0468089
0.0477985
0.04871
0.0495344
0.050262
0.0508811
0.0513777
0.0517339
0.0519268
0.077265
0.036562
0.0197076
0.0125171
0.009371
0.00803839
0.00760108
0.00764791
0.007977
0.00848115
0.0091
0.00979795
0.0105533
0.0113527
0.0121875
0.0130527
0.0139454
0.0148639
0.0158075
0.0167762
0.0177701
0.0187892
0.0198337
0.0209031
0.0219969
0.0231139
0.0242525
0.0254108
0.0265859
0.0277748
0.0289739
0.0301789
0.0313851
0.0325875
0.0337805
0.0349582
0.0361144
0.0372427
0.0383362
0.0393883
0.0403919
0.04134
0.0422252
0.0430402
0.0437768
0.0444264
0.0449786
0.0454211
0.0457382
0.0459099
0.0942196
0.0438147
0.0233712
0.0147513
0.0109437
0.00923221
0.00852683
0.00835221
0.00848115
0.00879602
0.00923184
0.00975089
0.0103303
0.010956
0.0116189
0.0123134
0.013036
0.0137848
0.0145588
0.0153577
0.0161816
0.0170307
0.0179053
0.0188052
0.0197304
0.0206802
0.0216535
0.0226489
0.0236643
0.024697
0.0257437
0.0268009
0.027864
0.0289283
0.0299885
0.0310387
0.0320729
0.0330848
0.0340677
0.0350149
0.0359195
0.0367747
0.0375737
0.0383092
0.0389739
0.0395597
0.0400573
0.0404557
0.0407411
0.0408955
0.112523
0.0515432
0.0272694
0.0171483
0.0126522
0.0105482
0.0095675
0.00916908
0.0091
0.00923184
0.00949457
0.00984778
0.010267
0.0107369
0.0112475
0.0117923
0.0123671
0.0129692
0.0135971
0.01425
0.0149277
0.0156301
0.0163574
0.0171099
0.0178874
0.0186898
0.0195167
0.0203669
0.021239
0.0221312
0.0230406
0.0239643
0.0248982
0.0258382
0.026779
0.0277154
0.0286413
0.0295506
0.0304366
0.0312927
0.0321122
0.0328881
0.0336138
0.0342824
0.0348868
0.0354194
0.0358716
0.0362335
0.0364926
0.0366327
0.131941
0.0596417
0.0313447
0.0196682
0.0144627
0.0119542
0.0106904
0.0100646
0.00979795
0.00975089
0.00984778
0.010045
0.0103159
0.0106436
0.0110169
0.0114282
0.0118724
0.012346
0.0128467
0.013373
0.013924
0.0144995
0.0150992
0.0157234
0.016372
0.017045
0.0177423
0.0184633
0.0192072
0.0199726
0.0207576
0.0215598
0.0223759
0.0232021
0.024034
0.0248666
0.0256942
0.0265108
0.0273101
0.0280851
0.0288293
0.0295359
0.0301981
0.030809
0.0313617
0.031849
0.0322629
0.032594
0.0328309
0.032959
0.152256
0.0680178
0.0355491
0.0222792
0.0163499
0.0134279
0.0118745
0.0110176
0.0105533
0.0103303
0.010267
0.0103159
0.0104478
0.010644
0.0108917
0.0111822
0.0115093
0.0118685
0.0122568
0.0126719
0.0131123
0.0135772
0.0140659
0.0145784
0.0151144
0.0156741
0.0162573
0.0168638
0.0174933
0.0181448
0.0188172
0.0195087
0.0202168
0.0209384
0.0216699
0.0224066
0.0231435
0.0238749
0.0245946
0.0252959
0.0259722
0.0266167
0.0272224
0.0277826
0.0282902
0.0287383
0.029119
0.0294237
0.0296416
0.0297595
0.173277
0.0765935
0.0398433
0.0249561
0.018295
0.0149536
0.0131057
0.012015
0.0113527
0.010956
0.0107369
0.0106436
0.010644
0.0107171
0.0108485
0.0110281
0.0112486
0.0115047
0.0117922
0.0121083
0.0124509
0.0128185
0.0132099
0.0136246
0.0140622
0.0145225
0.0150054
0.0155109
0.0160386
0.0165883
0.0171593
0.0177502
0.0183596
0.0189849
0.0196233
0.0202709
0.0209232
0.0215751
0.0222209
0.0228539
0.0234676
0.0240552
0.0246097
0.0251242
0.0255917
0.0260051
0.0263568
0.0266383
0.0268399
0.0269489
0.19484
0.0853058
0.0441965
0.0276796
0.0202838
0.0165202
0.0143749
0.0130482
0.0121875
0.0116189
0.0112475
0.0110169
0.0108917
0.0108485
0.010871
0.0109477
0.01107
0.0112317
0.0114278
0.0116548
0.0119097
0.0121905
0.0124957
0.0128241
0.013175
0.013548
0.0139426
0.0143589
0.0147966
0.0152556
0.0157355
0.0162357
0.016755
0.017292
0.0178442
0.0184088
0.018982
0.0195592
0.0201353
0.0207041
0.0212591
0.0217937
0.0223008
0.0227734
0.0232043
0.0235864
0.0239121
0.0241732
0.0243602
0.0244614
0.216812
0.0941057
0.0485855
0.0304354
0.0223062
0.0181202
0.0156761
0.0141121
0.0130527
0.0123134
0.0117923
0.0114282
0.0111822
0.0110281
0.0109477
0.0109278
0.0109587
0.0110331
0.0111452
0.0112907
0.0114662
0.0116688
0.0118967
0.0121482
0.0124221
0.0127177
0.0130343
0.0133717
0.0137297
0.0141081
0.0145067
0.0149252
0.0153631
0.0158192
0.0162921
0.0167795
0.0172785
0.0177854
0.0182955
0.0188033
0.0193026
0.019787
0.0202494
0.0206828
0.0210798
0.0214331
0.0217351
0.0219777
0.0221516
0.0222458
0.239091
0.102956
0.0529937
0.0332133
0.024355
0.0197485
0.0170055
0.0152036
0.0139454
0.013036
0.0123671
0.0118724
0.0115093
0.0112486
0.01107
0.0109587
0.0109036
0.0108964
0.0109306
0.0110009
0.0111034
0.0112349
0.0113926
0.0115748
0.0117796
0.0120061
0.0122533
0.0125207
0.0128078
0.0131146
0.0134407
0.0137861
0.0141504
0.0145332
0.0149333
0.0153494
0.0157791
0.0162196
0.0166671
0.0171167
0.0175628
0.017999
0.0184187
0.0188147
0.0191796
0.0195059
0.0197858
0.0200114
0.0201734
0.0202612
0.261594
0.111831
0.0574093
0.0360063
0.0264253
0.0214015
0.0183609
0.016321
0.0148639
0.0137848
0.0129692
0.012346
0.0118685
0.0115047
0.0112317
0.0110331
0.0108964
0.0108123
0.0107733
0.0107736
0.0108086
0.0108743
0.0109679
0.0110869
0.0112292
0.0113934
0.0115784
0.0117831
0.0120071
0.0122499
0.0125113
0.0127913
0.0130896
0.0134059
0.0137397
0.0140901
0.0144556
0.0148339
0.0152221
0.0156161
0.0160109
0.0164007
0.016779
0.0171389
0.0174729
0.0177733
0.0180324
0.0182418
0.0183927
0.0184746
0.28426
0.12071
0.0618247
0.0388099
0.028514
0.0230771
0.0197408
0.0174637
0.0158075
0.0145588
0.0135971
0.0128467
0.0122568
0.0117922
0.0114278
0.0111452
0.0109306
0.0107733
0.0106652
0.0105996
0.0105714
0.0105761
0.0106104
0.0106712
0.0107564
0.010864
0.0109925
0.0111408
0.0113081
0.0114937
0.0116972
0.0119186
0.0121575
0.012414
0.0126876
0.012978
0.0132841
0.0136044
0.0139366
0.0142777
0.0146232
0.014968
0.0153061
0.0156307
0.0159345
0.0162098
0.0164487
0.0166426
0.0167828
0.0168591
0.307044
0.129582
0.0662349
0.041621
0.0306187
0.0247738
0.0211444
0.0186312
0.0167762
0.0153577
0.01425
0.013373
0.0126719
0.0121083
0.0116548
0.0112907
0.0110009
0.0107736
0.0105996
0.0104717
0.0103838
0.0103313
0.0103102
0.0103172
0.0103497
0.0104053
0.0104824
0.0105794
0.0106954
0.0108294
0.0109809
0.0111496
0.0113353
0.0115378
0.011757
0.0119927
0.0122443
0.0125108
0.0127907
0.0130815
0.0133798
0.013681
0.0139797
0.0142697
0.0145438
0.0147944
0.0150133
0.0151921
0.0153219
0.0153927
0.32991
0.138436
0.0706366
0.0444378
0.0327379
0.0264903
0.0225712
0.0198234
0.0177701
0.0161816
0.0149277
0.013924
0.0131123
0.0124509
0.0119097
0.0114662
0.0111034
0.0108086
0.0105714
0.0103838
0.0102394
0.0101329
0.0100597
0.0100164
0.00999972
0.0100073
0.010037
0.0100872
0.0101564
0.0102436
0.0103482
0.0104694
0.0106071
0.010761
0.010931
0.011117
0.0113188
0.0115358
0.0117669
0.0120104
0.0122636
0.0125228
0.0127832
0.013039
0.0132837
0.0135095
0.0137086
0.0138724
0.0139919
0.0140573
0.352827
0.147266
0.0750277
0.0472588
0.0348704
0.0282257
0.0240204
0.0210402
0.0187892
0.0170307
0.0156301
0.0144995
0.0135772
0.0128185
0.0121905
0.0116688
0.0112349
0.0108743
0.0105761
0.0103313
0.0101329
0.00997484
0.00985243
0.00976161
0.00969902
0.00966182
0.00964764
0.00965453
0.00968088
0.00972542
0.00978717
0.00986543
0.0099597
0.0100697
0.0101953
0.0103364
0.0104928
0.0106643
0.0108502
0.0110495
0.0112601
0.0114789
0.011702
0.0119243
0.0121396
0.0123407
0.0125198
0.0126684
0.0127775
0.0128374
0.375771
0.156065
0.0794063
0.0500827
0.0370149
0.0299789
0.0254912
0.0222811
0.0198337
0.0179053
0.0163574
0.0150992
0.0140659
0.0132099
0.0124957
0.0118967
0.0113926
0.0109679
0.0106104
0.0103102
0.0100597
0.00985243
0.00968309
0.00954729
0.00944133
0.00936209
0.00930693
0.00927364
0.00926038
0.00926566
0.00928829
0.00932737
0.00938224
0.00945246
0.0095378
0.00963811
0.00975334
0.00988332
0.0100277
0.0101858
0.0103562
0.0105366
0.0107236
0.0109131
0.0110993
0.0112756
0.0114345
0.0115676
0.0116661
0.0117204
0.398717
0.164829
0.0837706
0.0529084
0.0391701
0.0317484
0.0269826
0.0235453
0.0209031
0.0188052
0.0171099
0.0157234
0.0145784
0.0136246
0.0128241
0.0121482
0.0115748
0.0110869
0.0106712
0.0103172
0.0100164
0.00976161
0.00954729
0.00936858
0.00922145
0.0091025
0.00900881
0.00893796
0.00888786
0.00885682
0.00884343
0.00884661
0.00886551
0.00889954
0.00894834
0.00901168
0.00908945
0.00918158
0.00928788
0.00940792
0.00954085
0.00968483
0.00983732
0.00999471
0.0101522
0.0103037
0.0104421
0.0105593
0.0106468
0.0106954
0.421641
0.17355
0.0881186
0.0557342
0.0413343
0.0335327
0.028493
0.0248319
0.0219969
0.0197304
0.0178874
0.016372
0.0151144
0.0140622
0.013175
0.0124221
0.0117796
0.0112292
0.0107564
0.0103497
0.00999972
0.00969902
0.00944133
0.00922145
0.00903502
0.00887832
0.00874821
0.00864201
0.00855743
0.00849256
0.00844581
0.00841589
0.00840179
0.00840275
0.00841825
0.00844795
0.00849167
0.00854932
0.00862079
0.00870582
0.00880389
0.00891374
0.00903333
0.00915978
0.00928904
0.00941576
0.00953342
0.0096345
0.0097107
0.00975329
0.444518
0.182223
0.0924476
0.0585582
0.0435057
0.0353297
0.0300205
0.0261391
0.0231139
0.0206802
0.0186898
0.017045
0.0156741
0.0145225
0.013548
0.0127177
0.0120061
0.0113934
0.010864
0.0104053
0.0100073
0.00966182
0.00936209
0.0091025
0.00887832
0.00868556
0.00852081
0.00838115
0.0082641
0.00816755
0.0080897
0.00802911
0.00798456
0.00795514
0.00794017
0.00793918
0.00795188
0.00797811
0.00801776
0.00807069
0.00813654
0.00821454
0.00830306
0.00839988
0.00850167
0.00860388
0.00870071
0.00878525
0.00884979
0.00888615
0.46732
0.19084
0.0967547
0.0613782
0.0456819
0.0371371
0.0315628
0.0274649
0.0242525
0.0216535
0.0195167
0.0177423
0.0162573
0.0150054
0.0139426
0.0130343
0.0122533
0.0115784
0.0109925
0.0104824
0.010037
0.00964764
0.00930693
0.00900881
0.00874821
0.00852081
0.00832294
0.00815145
0.00800365
0.00787724
0.00777025
0.00768104
0.00760825
0.00755079
0.00750781
0.00747871
0.00746307
0.00746063
0.00747124
0.00749477
0.00753099
0.00757941
0.0076388
0.00770746
0.00778276
0.00786092
0.00793696
0.00800477
0.00805734
0.00808726
0.490017
0.199392
0.101036
0.0641914
0.0478602
0.038952
0.0331172
0.0288069
0.0254108
0.0226489
0.0203669
0.0184633
0.0168638
0.0155109
0.0143589
0.0133717
0.0125207
0.0117831
0.0111408
0.0105794
0.0100872
0.00965453
0.00927364
0.00893796
0.00864201
0.00838115
0.00815145
0.00794952
0.00777245
0.00761775
0.00748329
0.00736725
0.00726812
0.00718462
0.00711578
0.00706083
0.00701921
0.00699055
0.00697462
0.00697126
0.00698027
0.00700136
0.00703361
0.00707573
0.0071257
0.00718051
0.00723603
0.00728703
0.00732743
0.00735073
0.512577
0.20787
0.105287
0.0669944
0.0500374
0.0407713
0.0346805
0.0301621
0.0265859
0.0236643
0.021239
0.0192072
0.0174933
0.0160386
0.0147966
0.0137297
0.0128078
0.0120071
0.0113081
0.0106954
0.0101564
0.00968088
0.00926038
0.00888786
0.00855743
0.0082641
0.00800365
0.00777245
0.00756737
0.00738575
0.00722526
0.00708393
0.00696008
0.0068523
0.00675944
0.0066806
0.00661508
0.00656238
0.00652215
0.00649417
0.00647825
0.00647414
0.00648126
0.00649855
0.00652453
0.00655689
0.00659235
0.00662669
0.00665483
0.0066714
0.534963
0.216263
0.109503
0.0697833
0.0522099
0.0425913
0.036249
0.0315268
0.0277748
0.024697
0.0221312
0.0199726
0.0181448
0.0165883
0.0152556
0.0141081
0.0131146
0.0122499
0.0114937
0.0108294
0.0102436
0.00972542
0.00926566
0.00885682
0.00849256
0.00816755
0.00787724
0.00761775
0.00738575
0.00717835
0.00699307
0.00682777
0.00668062
0.00655006
0.0064348
0.00633378
0.00624617
0.00617133
0.00610881
0.00605828
0.00601951
0.00599226
0.00597616
0.00597036
0.0059738
0.00598479
0.00600091
0.0060189
0.00603488
0.00604471
0.557137
0.224557
0.113677
0.0725536
0.0543735
0.0444079
0.0378187
0.0328973
0.0289739
0.0257437
0.0230406
0.0207576
0.0188172
0.0171593
0.0157355
0.0145067
0.0134407
0.0125113
0.0116972
0.0109809
0.0103482
0.00978717
0.00928829
0.00884343
0.00844581
0.0080897
0.00777025
0.00748329
0.00722526
0.00699307
0.00678406
0.00659593
0.00642669
0.00627465
0.00613837
0.00601666
0.00590854
0.00581325
0.0057302
0.00565898
0.00559926
0.00555079
0.00551331
0.00548614
0.00546857
0.00545944
0.00545709
0.0054593
0.00546338
0.00546654
0.579054
0.23274
0.117803
0.0753003
0.0565236
0.0462166
0.0393851
0.034269
0.0301789
0.0268009
0.0239643
0.0215598
0.0195087
0.0177502
0.0162357
0.0149252
0.0137861
0.0127913
0.0119186
0.0111496
0.0104694
0.00986543
0.00932737
0.00884661
0.00841589
0.00802911
0.00768104
0.00736725
0.00708393
0.00682777
0.00659593
0.00638594
0.00619566
0.00602326
0.00586717
0.00572604
0.00559879
0.00548451
0.00538251
0.00529223
0.00521328
0.00514535
0.00508821
0.00504139
0.00500435
0.00497644
0.0049567
0.00494386
0.00493648
0.00493319
0.600668
0.240794
0.121873
0.0780176
0.0586551
0.0480125
0.0409432
0.0356371
0.0313851
0.027864
0.0248982
0.0223759
0.0202168
0.0183596
0.016755
0.0153631
0.0141504
0.0130896
0.0121575
0.0113353
0.0106071
0.0099597
0.00938224
0.00886551
0.00840179
0.00798456
0.00760825
0.00726812
0.00696008
0.00668062
0.00642669
0.00619566
0.00598524
0.00579344
0.00561856
0.00545914
0.00531395
0.00518197
0.00506236
0.00495449
0.00485784
0.00477206
0.00469688
0.00463203
0.0045771
0.00453182
0.00449588
0.00446892
0.0044507
0.00444126
0.621927
0.248704
0.125877
0.0806991
0.0607622
0.0497899
0.0424878
0.0369965
0.0325875
0.0289283
0.0258382
0.0232021
0.0209384
0.0189849
0.017292
0.0158192
0.0145332
0.0134059
0.012414
0.0115378
0.010761
0.0100697
0.00945246
0.00889954
0.00840275
0.00795514
0.00755079
0.00718462
0.0068523
0.00655006
0.00627465
0.00602326
0.00579344
0.00558307
0.00539029
0.00521353
0.00505143
0.00490285
0.00476685
0.00464266
0.0045297
0.00442752
0.00433583
0.00425446
0.00418315
0.00412197
0.00407114
0.00403115
0.00400288
0.00398771
0.642774
0.256449
0.129807
0.0833373
0.0628386
0.0515431
0.044013
0.0383413
0.0337805
0.0299885
0.026779
0.024034
0.0216699
0.0196233
0.0178442
0.0162921
0.0149333
0.0137397
0.0126876
0.011757
0.010931
0.0101953
0.0095378
0.00894834
0.00841825
0.00794017
0.00750781
0.00711578
0.00675944
0.0064348
0.00613837
0.00586717
0.00561856
0.00539029
0.00518037
0.00498708
0.00480897
0.00464476
0.0044934
0.00435404
0.00422598
0.00410871
0.00400191
0.00390547
0.00381929
0.00374368
0.00367936
0.00362758
0.0035902
0.00356984
0.663148
0.264009
0.13365
0.0859244
0.0648773
0.0532656
0.0455127
0.0396657
0.0349582
0.0310387
0.0277154
0.0248666
0.0224066
0.0202709
0.0184088
0.0167795
0.0153494
0.0140901
0.012978
0.0119927
0.011117
0.0103364
0.00963811
0.00901168
0.00844795
0.00793918
0.00747871
0.00706083
0.0066806
0.00633378
0.00601666
0.00572604
0.00545914
0.00521353
0.00498708
0.00477797
0.00458459
0.00440558
0.00423979
0.00408624
0.00394418
0.00381302
0.00369241
0.00358225
0.00348268
0.00339417
0.00331788
0.00325568
0.00321031
0.00318542
0.682982
0.27136
0.137396
0.0884514
0.0668709
0.0549505
0.0469803
0.0409632
0.0361144
0.0320729
0.0286413
0.0256942
0.0231435
0.0209232
0.018982
0.0172785
0.0157791
0.0144556
0.0132841
0.0122443
0.0113188
0.0104928
0.00975334
0.00908945
0.00849167
0.00795188
0.00746307
0.00701921
0.00661508
0.00624617
0.00590854
0.00559879
0.00531395
0.00505143
0.00480897
0.00458459
0.0043766
0.0041835
0.00400406
0.00383722
0.00368213
0.00353817
0.00340497
0.00328246
0.00317095
0.00307113
0.00298451
0.00291349
0.00286145
0.00283283
0.702206
0.278478
0.14103
0.0909088
0.0688111
0.0565904
0.0484091
0.0422273
0.0372427
0.0330848
0.0295506
0.0265108
0.0238749
0.0215751
0.0195592
0.0177854
0.0162196
0.0148339
0.0136044
0.0125108
0.0115358
0.0106643
0.00988332
0.00918158
0.00854932
0.00797811
0.00746063
0.00699055
0.00656238
0.00617133
0.00581325
0.00548451
0.00518197
0.00490285
0.00464476
0.00440558
0.0041835
0.00397694
0.00378454
0.00360519
0.00343797
0.00328224
0.00313763
0.00300413
0.00288221
0.00277281
0.00267772
0.00259971
0.0025426
0.00251121
0.720742
0.285335
0.144538
0.0932862
0.0706893
0.0581777
0.0497918
0.0434511
0.0383362
0.0340677
0.0304366
0.0273101
0.0245946
0.0222209
0.0201353
0.0182955
0.0166671
0.0152221
0.0139366
0.0127907
0.0117669
0.0108502
0.0100277
0.00928788
0.00862079
0.00801776
0.00747124
0.00697462
0.00652215
0.00610881
0.0057302
0.00538251
0.00506236
0.00476685
0.0044934
0.00423979
0.00400406
0.00378454
0.0035798
0.00338865
0.00321016
0.00304366
0.00288883
0.00274577
0.00261512
0.0024981
0.00239671
0.00231392
0.00225363
0.00222063
0.738509
0.291903
0.147906
0.095572
0.072496
0.0597041
0.0511209
0.0446276
0.0393883
0.0350149
0.0312927
0.0280851
0.0252959
0.0228539
0.0207041
0.0188033
0.0171167
0.0156161
0.0142777
0.0130815
0.0120104
0.0110495
0.0101858
0.00940792
0.00870582
0.00807069
0.00749477
0.00697126
0.00649417
0.00605828
0.00565898
0.00529223
0.00495449
0.00464266
0.00435404
0.00408624
0.00383722
0.00360519
0.00338865
0.00318638
0.00299744
0.0028212
0.00265744
0.00250643
0.002369
0.00224667
0.00214155
0.00205657
0.00199531
0.00196205
0.755417
0.29815
0.151114
0.097754
0.0742211
0.0611606
0.0523884
0.0457493
0.0403919
0.0359195
0.0321122
0.0288293
0.0259722
0.0234676
0.0212591
0.0193026
0.0175628
0.0160109
0.0146232
0.0133798
0.0122636
0.0112601
0.0103562
0.00954085
0.00880389
0.00813654
0.00753099
0.00698027
0.00647825
0.00601951
0.00559926
0.00521328
0.00485784
0.0045297
0.00422598
0.00394418
0.00368213
0.00343797
0.00321016
0.00299744
0.00279891
0.00261406
0.00244285
0.00228577
0.00214391
0.00201899
0.00191313
0.00182888
0.00176906
0.00173695
0.771373
0.304041
0.154146
0.0998187
0.0758536
0.0625381
0.0535863
0.0468089
0.04134
0.0367747
0.0328881
0.0295359
0.0266167
0.0240552
0.0217937
0.019787
0.017999
0.0164007
0.014968
0.013681
0.0125228
0.0114789
0.0105366
0.00968483
0.00891374
0.00821454
0.00757941
0.00700136
0.00647414
0.00599226
0.00555079
0.00514535
0.00477206
0.00442752
0.00410871
0.00381302
0.00353817
0.00328224
0.00304366
0.0028212
0.00261406
0.00242193
0.00224501
0.00208411
0.00194058
0.00181621
0.00171289
0.00163235
0.00157627
0.00154659
0.786272
0.309539
0.15698
0.101752
0.0773821
0.0638267
0.0547058
0.0477985
0.0422252
0.0375737
0.0336138
0.0301981
0.0272224
0.0246097
0.0223008
0.0202494
0.0184187
0.016779
0.0153061
0.0139797
0.0127832
0.011702
0.0107236
0.00983732
0.00903333
0.00830306
0.0076388
0.00703361
0.00648126
0.00597616
0.00551331
0.00508821
0.00469688
0.00433583
0.00400191
0.00369241
0.00340497
0.00313763
0.00288883
0.00265744
0.00244285
0.00224501
0.00206449
0.00190241
0.00176033
0.00163984
0.00154218
0.00146795
0.00141737
0.00139102
0.800004
0.314604
0.159595
0.103537
0.0787937
0.0650158
0.0557378
0.04871
0.0430402
0.0383092
0.0342824
0.030809
0.0277826
0.0251242
0.0227734
0.0206828
0.0188147
0.0171389
0.0156307
0.0142697
0.013039
0.0119243
0.0109131
0.00999471
0.00915978
0.00839988
0.00770746
0.00707573
0.00649855
0.00597036
0.00548614
0.00504139
0.00463203
0.00425446
0.00390547
0.00358225
0.00328246
0.00300413
0.00274577
0.00250643
0.00228577
0.00208411
0.00190241
0.00174209
0.00160463
0.00149106
0.00140152
0.00133526
0.00129109
0.00126841
0.812441
0.31919
0.161966
0.105158
0.0800745
0.0660937
0.0566722
0.0495344
0.0437768
0.0389739
0.0348868
0.0313617
0.0282902
0.0255917
0.0232043
0.0210798
0.0191796
0.0174729
0.0159345
0.0145438
0.0132837
0.0121396
0.0110993
0.0101522
0.00928904
0.00850167
0.00778276
0.0071257
0.00652453
0.0059738
0.00546857
0.00500435
0.0045771
0.00418315
0.00381929
0.00348268
0.00317095
0.00288221
0.00261512
0.002369
0.00214391
0.00194058
0.00176033
0.00160463
0.00147452
0.00137001
0.00128991
0.00123209
0.00119431
0.00117516
0.823437
0.323243
0.164064
0.106593
0.0812084
0.0670471
0.0574977
0.050262
0.0444264
0.0395597
0.0354194
0.031849
0.0287383
0.0260051
0.0235864
0.0214331
0.0195059
0.0177733
0.0162098
0.0147944
0.0135095
0.0123407
0.0112756
0.0103037
0.00941576
0.00860388
0.00786092
0.00718051
0.00655689
0.00598479
0.00545944
0.00497644
0.00453182
0.00412197
0.00374368
0.00339417
0.00307113
0.00277281
0.0024981
0.00224667
0.00201899
0.00181621
0.00163984
0.00149106
0.00137001
0.00127542
0.00120474
0.00115481
0.00112271
0.00110661
0.832815
0.326698
0.165854
0.107818
0.0821763
0.0678601
0.0582009
0.0508811
0.0449786
0.0400573
0.0358716
0.0322629
0.029119
0.0263568
0.0239121
0.0217351
0.0197858
0.0180324
0.0164487
0.0150133
0.0137086
0.0125198
0.0114345
0.0104421
0.00953342
0.00870071
0.00793696
0.00723603
0.00659235
0.00600091
0.00545709
0.0049567
0.00449588
0.00407114
0.00367936
0.00331788
0.00298451
0.00267772
0.00239671
0.00214155
0.00191313
0.00171289
0.00154218
0.00140152
0.00128991
0.00120474
0.00114242
0.00109914
0.0010717
0.00105807
0.840354
0.329475
0.167294
0.108804
0.0829549
0.0685136
0.0587655
0.0513777
0.0454211
0.0404557
0.0362335
0.032594
0.0294237
0.0266383
0.0241732
0.0219777
0.0200114
0.0182418
0.0166426
0.0151921
0.0138724
0.0126684
0.0115676
0.0105593
0.0096345
0.00878525
0.00800477
0.00728703
0.00662669
0.0060189
0.0054593
0.00494386
0.00446892
0.00403115
0.00362758
0.00325568
0.00291349
0.00259971
0.00231392
0.00205657
0.00182888
0.00163235
0.00146795
0.00133526
0.00123209
0.00115481
0.00109914
0.00106102
0.00103719
0.00102549
0.845774
0.331471
0.168329
0.109513
0.0835147
0.0689831
0.0591709
0.0517339
0.0457382
0.0407411
0.0364926
0.0328309
0.0296416
0.0268399
0.0243602
0.0221516
0.0201734
0.0183927
0.0167828
0.0153219
0.0139919
0.0127775
0.0116661
0.0106468
0.0097107
0.00884979
0.00805734
0.00732743
0.00665483
0.00603488
0.00546338
0.00493648
0.0044507
0.00400288
0.0035902
0.00321031
0.00286145
0.0025426
0.00225363
0.00199531
0.00176906
0.00157627
0.00141737
0.00129109
0.00119431
0.00112271
0.0010717
0.00103719
0.00101594
0.00100572
0.848713
0.332554
0.168891
0.109898
0.0838185
0.0692378
0.0593906
0.0519268
0.0459099
0.0408955
0.0366327
0.032959
0.0297595
0.0269489
0.0244614
0.0222458
0.0202612
0.0184746
0.0168591
0.0153927
0.0140573
0.0128374
0.0117204
0.0106954
0.00975329
0.00888615
0.00808726
0.00735073
0.0066714
0.00604471
0.00546654
0.00493319
0.00444126
0.00398771
0.00356984
0.00318542
0.00283283
0.00251121
0.00222063
0.00196205
0.00173695
0.00154659
0.00139102
0.00126841
0.00117516
0.00110661
0.00105807
0.00102549
0.00100572
0.00099649
)
;

boundaryField
{
    bottomWall
    {
        lowReCorrection 0;
        type            epsilonWallFunction;
        value           nonuniform List<scalar> 
50
(
0.0113805
0.0125692
0.0154825
0.0204044
0.0275073
0.0368458
0.0483596
0.0619007
0.077265
0.0942196
0.112523
0.131941
0.152256
0.173277
0.19484
0.216812
0.239091
0.261594
0.28426
0.307044
0.32991
0.352827
0.375771
0.398717
0.421641
0.444518
0.46732
0.490017
0.512577
0.534963
0.557137
0.579054
0.600668
0.621927
0.642774
0.663148
0.682982
0.702206
0.720742
0.738509
0.755417
0.771373
0.786272
0.800004
0.812441
0.823437
0.832815
0.840354
0.845774
0.848713
)
;
    }
    leftWall
    {
        lowReCorrection 0;
        type            epsilonWallFunction;
        value           nonuniform List<scalar> 
50
(
0.0113805
0.0125692
0.0154825
0.0204044
0.0275073
0.0368458
0.0483596
0.0619007
0.077265
0.0942196
0.112523
0.131941
0.152256
0.173277
0.19484
0.216812
0.239091
0.261594
0.28426
0.307044
0.32991
0.352827
0.375771
0.398717
0.421641
0.444518
0.46732
0.490017
0.512577
0.534963
0.557137
0.579054
0.600668
0.621927
0.642774
0.663148
0.682982
0.702206
0.720742
0.738509
0.755417
0.771373
0.786272
0.800004
0.812441
0.823437
0.832815
0.840354
0.845774
0.848713
)
;
    }
    topSym
    {
        type            symmetryPlane;
    }
    rightSym
    {
        type            symmetryPlane;
    }
    inlet
    {
        type            cyclic;
    }
    outlet
    {
        type            cyclic;
    }
}


// ************************************************************************* //
