/*--------------------------------*- C++ -*----------------------------------*\
| =========                 |                                                 |
| \\      /  F ield         | OpenFOAM: The Open Source CFD Toolbox           |
|  \\    /   O peration     | Version:  v1912                                 |
|   \\  /    A nd           | Website:  www.openfoam.com                      |
|    \\/     M anipulation  |                                                 |
\*---------------------------------------------------------------------------*/
FoamFile
{
    version     2.0;
    format      ascii;
    class       volTensorField;
    location    "4000";
    object      grad(U);
}
// * * * * * * * * * * * * * * * * * * * * * * * * * * * * * * * * * * * * * //

dimensions      [0 0 -1 0 0 0 0];


internalField   nonuniform List<tensor> 
2500
(
(0 0 0 0.530893 -5.3164e-06 -1.17574e-05 0.530893 -1.17575e-05 -5.31639e-06)
(-1.60729e-18 1.22627e-23 4.90507e-23 0.422248 -2.79476e-05 -1.80073e-05 1.34131 2.52174e-05 1.83703e-05)
(0 0 0 0.395195 -9.60217e-05 -2.79852e-05 2.14681 -2.6752e-05 6.02336e-05)
(0 0 0 0.378281 -0.000192628 -3.87937e-05 2.9607 -0.000207951 0.000127129)
(-5.35181e-18 0 0 0.365146 -0.000310556 -5.91023e-05 3.7876 -0.000591025 0.000197562)
(-1.00688e-17 0 0 0.352384 -0.000403244 -9.27416e-05 4.62777 -0.00120517 0.000215295)
(0 -4.62485e-21 -1.15621e-21 0.338361 -0.000411887 -0.000136708 5.47858 -0.00195292 0.000112583)
(0 0 0 0.322572 -0.000301171 -0.000182227 6.33553 -0.00259597 -0.000154992)
(0 0 0 0.305138 -7.78109e-05 -0.000220248 7.19327 -0.00281829 -0.000584742)
(0 0 0 0.286516 0.00021677 -0.000246178 8.04627 -0.00232568 -0.00113493)
(0 0 0 0.267248 0.000528398 -0.000260028 8.88949 -0.000921461 -0.00174843)
(-1.3954e-17 1.70337e-21 0 0.247865 0.00080952 -0.000264444 9.71865 0.00146322 -0.00237353)
(0 -6.4094e-21 0 0.22885 0.00102931 -0.000262773 10.5304 0.00477808 -0.00297518)
(-1.2348e-17 0 0 0.210575 0.00117529 -0.000257872 11.3226 0.00888609 -0.00353714)
(-2.32313e-17 0 0 0.193304 0.00124951 -0.000251652 12.0936 0.0136034 -0.00405828)
(0 2.13414e-20 -1.06707e-20 0.177185 0.00126305 -0.00024512 12.8431 0.018735 -0.00454694)
(-2.05575e-17 0 0 0.162284 0.00123076 -0.00023868 13.571 0.0241002 -0.00501544)
(-1.93383e-17 -3.77702e-20 1.88851e-20 0.148611 0.0011676 -0.000232382 14.2778 0.0295477 -0.00547651)
(-1.81915e-17 0 1.77651e-20 0.136128 0.00108652 -0.000226106 14.9643 0.0349614 -0.00594089)
(0 -6.68461e-20 1.67115e-20 0.124738 0.000997596 -0.000219714 15.6314 0.0402601 -0.00641647)
(0 0 0 0.114362 0.00090793 -0.000213094 16.28 0.0453922 -0.00690827)
(-3.02861e-17 0 0 0.104908 0.000822051 -0.000206172 16.9111 0.0503308 -0.00741876)
(0 0 0 0.0962775 0.000742437 -0.000198933 17.5256 0.0550666 -0.00794838)
(0 0 0 0.0883888 0.000670103 -0.000191395 18.124 0.0596014 -0.00849617)
(0 0 0 0.0811602 0.000605002 -0.000183597 18.7071 0.063944 -0.00906021)
(-4.74314e-17 0 2.31599e-20 0.0745238 0.00054652 -0.000175591 19.2753 0.0681044 -0.00963798)
(6.69277e-17 8.71454e-20 -6.53591e-20 0.0684155 0.000493646 -0.00016743 19.8289 0.0720914 -0.0102266)
(0 0 0 0.0627762 0.000445193 -0.000159172 20.3682 0.0759092 -0.0108232)
(0 1.54231e-19 -3.85577e-20 0.0575649 0.000400012 -0.000150868 20.8932 0.0795556 -0.0114248)
(-3.71415e-17 0 0 0.0527432 0.000356974 -0.00014256 21.404 0.0830196 -0.0120283)
(0 0 0 0.0482655 0.000315034 -0.000134292 21.9004 0.0862808 -0.012631)
(3.28667e-17 1.28386e-19 -3.20964e-20 0.0441067 0.000273232 -0.00012609 22.3823 0.0893065 -0.0132299)
(0 0 0 0.0402377 0.000230845 -0.000117982 22.8493 0.0920525 -0.0138225)
(0 0 0 0.0366297 0.000187181 -0.000109994 23.3011 0.0944603 -0.014406)
(0 -1.06871e-19 5.34357e-20 0.0332621 0.000141728 -0.000102138 23.7371 0.096457 -0.0149778)
(-5.1473e-17 -2.01067e-19 5.02666e-20 0.030116 9.42176e-05 -9.44303e-05 24.1567 0.0979557 -0.0155355)
(-4.84204e-17 0 9.45711e-20 0.0271746 4.45455e-05 -8.689e-05 24.5595 0.0988542 -0.0160766)
(-4.55488e-17 -1.77925e-19 0 0.0244177 -7.05546e-06 -7.95276e-05 24.9445 0.099039 -0.0165988)
(0 1.67373e-19 -8.36864e-20 0.0218355 -6.03156e-05 -7.23475e-05 25.3109 0.0983882 -0.0171)
(4.03063e-17 1.57447e-19 -7.87233e-20 0.0194148 -0.000114784 -6.5362e-05 25.6579 0.0967685 -0.0175778)
(0 0 7.40545e-20 0.0171403 -0.000169631 -5.85776e-05 25.9843 0.0940449 -0.0180303)
(0 0 0 0.015002 -0.000223624 -5.20013e-05 26.2889 0.0900857 -0.0184558)
(0 0 0 0.0129868 -0.000275352 -4.56263e-05 26.5707 0.0847791 -0.0188524)
(0 1.2329e-19 0 0.011085 -0.000323134 -3.94421e-05 26.828 0.0780339 -0.0192185)
(-2.96903e-17 0 5.79889e-20 0.0092784 -0.000365414 -3.34212e-05 27.0592 0.0698054 -0.0195518)
(0 0 0 0.00754779 -0.000400614 -2.7515e-05 27.2622 0.060082 -0.0198492)
(0 0 0 0.0058726 -0.000427922 -2.16545e-05 27.4343 0.0489211 -0.0201068)
(0 -4.82714e-20 4.82714e-20 0.00422309 -0.000447063 -1.57577e-05 27.572 0.0363944 -0.0203175)
(0 0 0 0.00256576 -0.00045862 -8.99202e-06 27.6706 0.0226336 -0.0204731)
(0 0 0 0.000865242 -0.000464633 -2.59573e-06 27.7239 0.00773679 -0.0205258)
(1.60729e-18 -4.90507e-23 -1.22627e-23 1.34131 1.83702e-05 2.52174e-05 0.422248 -1.80073e-05 -2.79476e-05)
(0 0 0 1.11928 1.77971e-05 8.22098e-05 1.11928 8.22098e-05 1.77971e-05)
(5.68921e-18 4.34052e-23 1.04173e-21 1.05783 -0.000107155 0.000128326 1.83518 0.000144313 0.000137807)
(1.07036e-17 -6.53297e-22 0 1.00641 -0.000274452 0.000159066 2.56623 0.00017008 0.00032793)
(0 2.45821e-21 0 0.958065 -0.000469658 0.000135345 3.30691 0.000152709 0.000548925)
(1.89434e-17 -4.62485e-21 0 0.910026 -0.00060305 3.68146e-05 4.05179 0.00010249 0.000699168)
(-1.78199e-17 4.35056e-21 0 0.860842 -0.000558539 -0.000115744 4.79618 9.74956e-05 0.000664615)
(0 0 0 0.810006 -0.000270347 -0.000271822 5.5359 0.000289585 0.000386549)
(0 7.69967e-21 0 0.75777 0.000239856 -0.000383359 6.26722 0.000859593 -0.000105722)
(0 0 0 0.704843 0.000881593 -0.000429541 6.98677 0.00195716 -0.000717505)
(-2.7908e-17 0 0 0.65219 0.0015422 -0.000416635 7.69159 0.00366581 -0.00133423)
(-2.62529e-17 0 6.4094e-21 0.600774 0.00212537 -0.000365164 8.3794 0.00599579 -0.00185869)
(0 0 0 0.551417 0.00257026 -0.000297582 9.04847 0.00889453 -0.00222959)
(4.64627e-17 0 -1.13434e-20 0.504755 0.00285382 -0.000231086 9.69783 0.012266 -0.00242354)
(-4.37072e-17 -4.26828e-20 0 0.461223 0.00298279 -0.000175497 10.327 0.0159919 -0.00244679)
(0 0 -1.00379e-20 0.421017 0.00298209 -0.000134307 10.9361 0.0199507 -0.00232359)
(7.73534e-17 7.55404e-20 -1.88851e-20 0.384159 0.00288427 -0.000106887 11.5254 0.0240307 -0.00208558)
(-3.63829e-17 -1.42121e-19 8.88255e-21 0.350571 0.00272177 -9.05705e-05 12.0958 0.0281375 -0.0017643)
(0 0 -1.67115e-20 0.320054 0.00252269 -8.21177e-05 12.648 0.0321987 -0.00138681)
(-6.43909e-17 0 1.57204e-20 0.29237 0.0023087 -7.85893e-05 13.1829 0.0361623 -0.000974033)
(0 0 0 0.267261 0.00209511 -7.76952e-05 13.7013 0.0399949 -0.000540634)
(0 0 -1.39111e-20 0.244467 0.00189179 -7.78128e-05 14.2041 0.0436787 -9.5899e-05)
(0 0 0 0.223744 0.00170385 -7.79254e-05 14.6922 0.0472067 0.000355067)
(5.04217e-17 0 -1.231e-20 0.204863 0.0015334 -7.74934e-05 15.166 0.0505798 0.00081016)
(-9.48629e-17 -3.70558e-19 2.31599e-20 0.187621 0.00138032 -7.62684e-05 15.6261 0.0538028 0.00126926)
(0 0 0 0.171836 0.00124287 -7.42101e-05 16.0729 0.056882 0.00173338)
(0 0 0 0.157356 0.00111879 -7.13942e-05 16.5069 0.0598227 0.00220406)
(0 0 0 0.144042 0.00100542 -6.79477e-05 16.9282 0.0626273 0.00268296)
(0 2.90168e-19 -1.81355e-20 0.131775 0.000899914 -6.40204e-05 17.3369 0.0652933 0.00317165)
(6.98776e-17 0 -1.706e-20 0.120448 0.000799709 -5.97543e-05 17.7331 0.0678123 0.00367131)
(0 0 0 0.109974 0.000702311 -5.52757e-05 18.1169 0.0701684 0.00418276)
(0 -2.41543e-19 0 0.100274 0.000605576 -5.06971e-05 18.4881 0.0723376 0.00470637)
(-1.16336e-16 -9.08873e-19 2.84023e-20 0.0912758 0.000507645 -4.61168e-05 18.8463 0.0742863 0.00524196)
(-1.09436e-16 0 0 0.0829128 0.000406931 -4.16061e-05 19.1917 0.0759704 0.00578887)
(0 0 0 0.075123 0.000302346 -3.72282e-05 19.5239 0.0773355 0.00634587)
(9.68408e-17 0 -4.72855e-20 0.0678703 0.00019306 -3.30485e-05 19.8424 0.0783152 0.00691109)
(0 0 0 0.0611253 7.88375e-05 -2.9119e-05 20.1469 0.0788323 0.0074819)
(0 0 0 0.054825 -3.98153e-05 -2.54589e-05 20.4369 0.0788004 0.00805495)
(0 0 0 0.0489311 -0.000162308 -2.20826e-05 20.712 0.0781252 0.00862637)
(0 0 0 0.043425 -0.000287615 -1.90237e-05 20.9713 0.0767049 0.00919162)
(-1.42669e-16 -2.78651e-19 3.48313e-20 0.0382614 -0.000413848 -1.63078e-05 21.2146 0.0744354 0.00974506)
(-1.34208e-16 -2.62125e-19 9.82969e-20 0.0334385 -0.000538189 -1.39446e-05 21.441 0.0712154 0.0102801)
(-1.26249e-16 -2.46579e-19 3.08224e-20 0.0289073 -0.000657405 -1.1919e-05 21.6497 0.0669564 0.0107893)
(0 0 0 0.0246323 -0.000767639 -1.0197e-05 21.8396 0.0615866 0.0112645)
(1.11718e-16 2.18199e-19 0 0.0206007 -0.000865294 -8.71469e-06 22.0099 0.0550673 0.0116972)
(0 0 0 0.0167456 -0.000946779 -7.3865e-06 22.159 0.0473867 0.0120787)
(0 0 0 0.0130161 -0.00101017 -6.08279e-06 22.2851 0.0385823 0.0124004)
(0 0 0 0.00935316 -0.00105471 -4.69876e-06 22.386 0.0287062 0.0126549)
(0 0 0 0.00567982 -0.00108179 -2.03408e-06 22.458 0.0178549 0.0128339)
(8.22935e-17 2.00912e-20 -4.01824e-20 0.00191264 -0.00109594 -4.22271e-08 22.4969 0.0061027 0.0129233)
(0 0 0 2.14681 6.02336e-05 -2.6752e-05 0.395195 -2.79852e-05 -9.60217e-05)
(-5.68921e-18 -1.04173e-21 -4.34052e-23 1.83518 0.000137807 0.000144313 1.05783 0.000128326 -0.000107155)
(2.14072e-17 6.53297e-22 6.53297e-22 1.75701 -8.97772e-06 0.000261018 1.75701 0.000261018 -8.97771e-06)
(0 0 0 1.6818 -0.000178602 0.000323139 2.4815 0.000388443 0.000155137)
(-1.89434e-17 5.78106e-22 0 1.60326 -0.000357701 0.000249264 3.22114 0.000544689 0.000321157)
(0 0 0 1.52019 -0.000436361 -2.90009e-06 3.96701 0.000787407 0.00035783)
(0 0 0 1.43321 -0.000265055 -0.000369915 4.71151 0.00121915 0.000115719)
(0 0 0 1.34349 0.000233358 -0.000722517 5.44883 0.00196957 -0.000460753)
(0 0 -7.24304e-21 1.25239 0.00101257 -0.000949857 6.17469 0.00315027 -0.0012954)
(-5.5816e-17 -3.40674e-21 0 1.16135 0.001938 -0.00101156 6.88599 0.00481594 -0.00223434)
(0 0 0 1.07189 0.00285616 -0.000930835 7.5805 0.00696288 -0.00311558)
(-9.87838e-17 -4.82343e-20 3.61757e-20 0.985397 0.0036434 -0.00076186 8.25661 0.00954586 -0.00381355)
(0 0 -2.26869e-20 0.903006 0.0042259 -0.000560824 8.91342 0.0124956 -0.00425656)
(0 0 0 0.825581 0.00457936 -0.000369725 9.55045 0.0157318 -0.00442451)
(-8.22301e-17 0 2.00757e-20 0.75362 0.00471737 -0.00021197 10.1677 0.0191728 -0.00433568)
(0 0 -1.88851e-20 0.687304 0.00467631 -9.53303e-05 10.7651 0.0227408 -0.00403084)
(0 -1.42121e-19 0 0.626661 0.00450151 -1.74491e-05 11.3435 0.0263668 -0.0035594)
(-1.36901e-16 -2.67384e-19 3.3423e-20 0.571498 0.00423805 2.90221e-05 11.9033 0.0299918 -0.00296952)
(0 0 0 0.521342 0.00392482 5.27425e-05 12.4452 0.0335698 -0.00230266)
(0 0 0 0.475826 0.00359197 6.15816e-05 12.9703 0.0370652 -0.00159122)
(-1.1396e-16 -4.45155e-19 0 0.434587 0.0032612 6.17619e-05 13.4789 0.040455 -0.000858552)
(1.07201e-16 0 -2.61722e-20 0.397188 0.0029463 5.77035e-05 13.9722 0.0437243 -0.000120044)
(0 0 0 0.363162 0.00265475 5.22541e-05 14.4503 0.046866 0.000615132)
(0 0 0 0.332127 0.00238958 4.70774e-05 14.914 0.0498782 0.00134245)
(-8.92369e-17 -3.48582e-19 2.17864e-20 0.303831 0.00215048 4.29964e-05 15.3637 0.0527621 0.0020605)
(-8.39446e-17 0 2.04943e-20 0.277968 0.00193524 4.02784e-05 15.7997 0.05552 0.00276976)
(0 -6.16924e-19 1.92789e-20 0.254237 0.00174046 3.88908e-05 16.2224 0.0581541 0.00347184)
(0 0 0 0.232404 0.00156202 3.86369e-05 16.6319 0.0606636 0.00416872)
(0 0 0 0.212297 0.00139582 3.9247e-05 17.0282 0.0630446 0.00486248)
(0 0 0 0.193784 0.00123785 4.04448e-05 17.4115 0.0652883 0.00555494)
(0 0 1.50964e-20 0.176697 0.00108434 4.19833e-05 17.7817 0.0673789 0.00624757)
(-1.16336e-16 0 0 0.160835 0.000931974 4.36413e-05 18.1386 0.0692945 0.00694135)
(0 0 0 0.146163 0.000777805 4.52385e-05 18.4823 0.0710037 0.00763676)
(0 0 1.25667e-20 0.132583 0.000619392 4.66255e-05 18.8124 0.0724668 0.00833376)
(-9.68408e-17 -7.56568e-19 2.36428e-20 0.119938 0.000454864 4.76748e-05 19.1287 0.0736335 0.00903162)
(0 0 0 0.108176 0.00028296 4.82719e-05 19.4311 0.0744431 0.00972898)
(0 0 0 0.0972443 0.000103316 4.83094e-05 19.719 0.0748252 0.0104236)
(0 0 0 0.0870789 -8.34888e-05 4.77538e-05 19.9923 0.0746993 0.0111121)
(0 0 0 0.0775894 -0.000276531 4.66003e-05 20.2504 0.0739777 0.0117906)
(1.42669e-16 0 -8.70783e-21 0.0687406 -0.000474107 4.47915e-05 20.493 0.0725666 0.012455)
(1.34208e-16 0 0 0.0605021 -0.000673264 4.22735e-05 20.7195 0.0703684 0.0130992)
(-1.26249e-16 0 7.70561e-21 0.0527902 -0.00086969 3.90404e-05 20.9297 0.0672885 0.0137161)
(0 0 -7.24862e-21 0.0455584 -0.00105832 3.5139e-05 21.1226 0.0632429 0.0142975)
(0 0 0 0.0387787 -0.00123304 3.06532e-05 21.2979 0.058162 0.0148345)
(2.10185e-16 0 0 0.0323825 -0.00138818 2.57361e-05 21.4544 0.052006 0.0153176)
(0 0 0 0.0262915 -0.00151802 2.05813e-05 21.5909 0.0447606 0.0157378)
(0 0 0 0.0204247 -0.00161945 1.54544e-05 21.7063 0.0364542 0.0160869)
(0 0 0 0.0146645 -0.00169115 1.0547e-05 21.7983 0.027133 0.0163588)
(0 0 0 0.00889452 -0.00173516 6.37113e-06 21.8639 0.0168806 0.0165476)
(0 0 0 0.0029973 -0.00175807 2.29562e-06 21.8995 0.00576886 0.016616)
(0 0 0 2.9607 0.000127129 -0.000207951 0.378281 -3.87937e-05 -0.000192628)
(-1.07036e-17 -1.30659e-21 6.53297e-22 2.56623 0.00032793 0.00017008 1.00641 0.000159066 -0.000274452)
(2.01377e-17 0 3.07276e-22 2.4815 0.000155137 0.000388443 1.6818 0.000323139 -0.000178602)
(0 0 0 2.3841 -6.09085e-06 0.00046901 2.3841 0.00046901 -6.09085e-06)
(0 0 0 2.27319 -0.000114954 0.000316789 3.09599 0.000631187 0.000127766)
(0 -1.02314e-21 -4.09255e-21 2.15132 -3.93851e-05 -0.000129768 3.80602 0.000899157 9.17464e-05)
(0 -9.62459e-22 0 2.02186 0.000369977 -0.00075267 4.50648 0.0014499 -0.000249425)
(5.9335e-17 3.62152e-21 0 1.88842 0.00115525 -0.00130963 5.19232 0.00245382 -0.000919868)
(5.5816e-17 0 0 1.75415 0.00221506 -0.00161308 5.86046 0.00397663 -0.00179237)
(0 2.56376e-20 0 1.62165 0.00336864 -0.0016179 6.50944 0.00597081 -0.00267701)
(0 0 0 1.49301 0.00444265 -0.00138662 7.13862 0.00833291 -0.00340578)
(0 0 0 1.36996 0.00531496 -0.00102367 7.74812 0.0109542 -0.0038679)
(0 0 0 1.25376 0.00592333 -0.000627653 8.3383 0.0137446 -0.0040141)
(0 0 0 1.14523 0.00625736 -0.000268135 8.90952 0.0166375 -0.00384649)
(-7.73534e-17 1.51081e-19 -3.77702e-20 1.04468 0.00634297 1.85129e-05 9.4625 0.0195865 -0.0034022)
(1.45532e-16 -1.42121e-19 0 0.952335 0.00622623 0.000222542 9.99781 0.0225583 -0.00273738)
(0 2.67384e-19 -3.3423e-20 0.867995 0.00596032 0.000351052 10.5162 0.0255268 -0.00191389)
(0 0 0 0.791098 0.0055965 0.000419064 11.0181 0.0284709 -0.00099027)
(0 0 0 0.721386 0.00517864 0.000443409 11.5039 0.0313715 -1.665e-05)
(-2.27919e-16 -4.45155e-19 0 0.658124 0.004741 0.000439205 11.9748 0.0342122 0.000967626)
(0 -8.37509e-19 0 0.60072 0.00430828 0.000418362 12.4308 0.0369804 0.00193381)
(2.01687e-16 7.8784e-19 -3.693e-20 0.548576 0.00389633 0.000389452 12.8725 0.039665 0.00286273)
(0 -1.11167e-18 2.31599e-20 0.501126 0.00351405 0.000358102 13.3004 0.0422592 0.00374296)
(0 0 0 0.457933 0.003165 0.000327659 13.7148 0.0447583 0.00456907)
(0 0 0 0.418433 0.00284901 0.000299869 14.116 0.0471594 0.00533981)
(0 0 0 0.382322 0.00256332 0.000275427 14.5044 0.0494608 0.00605685)
(-1.48566e-16 0 0 0.349253 0.00230372 0.000254385 14.8798 0.0516603 0.00672363)
(0 5.45919e-19 4.26499e-21 0.318827 0.00206528 0.000236456 15.2424 0.0537546 0.0073446)
(0 0 0 0.290837 0.00184278 0.000221199 15.5925 0.0557382 0.00792461)
(0 0 7.54822e-21 0.265076 0.00163105 0.000208124 15.9299 0.0576011 0.00846862)
(0 0 0 0.241245 0.00142528 0.000196766 16.2546 0.0593315 0.00898148)
(0 0 0 0.219259 0.00122109 0.000186704 16.5664 0.0609072 0.00946764)
(0 0 0 0.198922 0.00101461 0.000177571 16.8655 0.0623035 0.00993123)
(3.87363e-16 7.56568e-19 4.72855e-20 0.180053 0.000802605 0.000169053 17.1515 0.0634861 0.0103759)
(0 0 0 0.162583 0.000582511 0.000160877 17.4243 0.0644134 0.0108046)
(0 0 0 0.146364 0.000352649 0.00015278 17.6838 0.0650351 0.0112199)
(1.61225e-16 0 3.93617e-20 0.131318 0.000112351 0.000144499 17.9298 0.0652904 0.0116232)
(-1.51664e-16 -1.18487e-18 -3.70273e-20 0.117343 -0.000137721 0.000135904 18.1618 0.0651107 0.0120146)
(0 0 0 0.104358 -0.000396226 0.000126978 18.38 0.0644229 0.0123939)
(0 0 0 0.0922802 -0.000660972 0.000117574 18.5839 0.063145 0.0127605)
(0 0 0 0.0810299 -0.000928094 0.000107511 18.7734 0.0611959 0.013112)
(0 0 0 0.0705807 -0.00119179 9.67245e-05 18.9481 0.0584925 0.0134442)
(0 0 0 0.0608282 -0.00144536 8.52404e-05 19.1078 0.0549609 0.0137522)
(0 0 0 0.0516947 -0.0016807 7.31689e-05 19.2521 0.0505419 0.0140297)
(-1.9772e-16 -1.15851e-18 -4.82714e-20 0.0430941 -0.00189008 6.07397e-05 19.3805 0.0451963 0.0142707)
(-1.85994e-16 3.63269e-19 -4.54087e-20 0.0349426 -0.0020659 4.82721e-05 19.4922 0.038909 0.0144701)
(0 0 0 0.0271173 -0.00220383 3.6207e-05 19.5861 0.0316991 0.0146244)
(3.29174e-16 0 8.03647e-20 0.0194553 -0.00230193 2.48531e-05 19.6609 0.0236035 0.0147345)
(-3.09652e-16 -1.51197e-19 0 0.0118074 -0.00236268 1.3595e-05 19.7141 0.0146887 0.0148032)
(0 -7.11152e-20 7.11152e-20 0.0039826 -0.00239409 3.9147e-06 19.743 0.00501872 0.0148097)
(5.35181e-18 0 0 3.7876 0.000197562 -0.000591025 0.365146 -5.91023e-05 -0.000310556)
(0 0 2.45821e-21 3.30691 0.000548925 0.000152709 0.958065 0.000135345 -0.000469658)
(-1.89434e-17 0 5.78106e-22 3.22114 0.000321157 0.000544689 1.60326 0.000249264 -0.000357701)
(-3.56398e-17 -4.35056e-21 -1.08764e-21 3.09599 0.000127766 0.000631187 2.27319 0.000316789 -0.000114954)
(0 4.09255e-21 4.09255e-21 2.94084 4.125e-05 0.000344981 2.94084 0.000344981 4.125e-05)
(6.30757e-17 0 3.84984e-21 2.76816 0.000278042 -0.000330689 3.59009 0.000342478 -9.7335e-05)
(0 0 0 2.58685 0.00101795 -0.00120578 4.21425 0.000509222 -0.000653835)
(-1.11632e-16 -1.3627e-20 1.3627e-20 2.40323 0.00220338 -0.00192682 4.81167 0.00113821 -0.00157916)
(0 0 1.28188e-20 2.22199 0.00359815 -0.0022429 5.38298 0.00235588 -0.00266985)
(-9.87838e-17 -4.82343e-20 2.41171e-20 2.04635 0.00495352 -0.00212996 5.93011 0.00407537 -0.00370963)
(0 0 0 1.87862 0.00610158 -0.00170831 6.4553 0.00612608 -0.00455173)
(0 0 0 1.72033 0.00695766 -0.00113623 6.96073 0.00835388 -0.00512282)
(8.22301e-17 1.60606e-19 -4.01514e-20 1.57227 0.00749853 -0.00054958 7.44844 0.0106539 -0.00540462)
(1.54707e-16 1.51081e-19 -3.77702e-20 1.43497 0.0077424 -3.83775e-05 7.92013 0.012969 -0.00541665)
(0 0 0 1.30855 0.00773191 0.000353915 8.37715 0.0152754 -0.00520139)
(0 0 0 1.19272 0.00752083 0.000619372 8.82054 0.0175684 -0.00481266)
(-1.28782e-16 0 6.28817e-20 1.08705 0.00716469 0.000771899 9.25064 0.0198499 -0.00430664)
(0 0 0 0.990793 0.0067146 0.000835293 9.66849 0.0221218 -0.00373599)
(0 0 0 0.903354 0.00621363 0.000835202 10.0743 0.0243815 -0.00314588)
(0 0 1.30861e-20 0.823966 0.00569575 0.000794457 10.468 0.0266239 -0.00257238)
(0 0 0 0.751806 0.0051855 0.000731103 10.8503 0.0288401 -0.00204197)
(0 0 0 0.686246 0.00469905 0.000658202 11.2209 0.0310203 -0.00157228)
(-1.78474e-16 -6.97163e-19 -3.40412e-22 0.626531 0.00424587 0.000584395 11.5804 0.0331546 -0.00117336)
(-1.67889e-16 -6.55817e-19 -5.12357e-21 0.572039 0.00382981 0.000514866 11.9285 0.0352337 -0.000849087)
(0 0 0 0.522287 0.00345078 0.000452314 12.2655 0.0372493 -0.000598653)
(0 5.80336e-19 0 0.476744 0.00310607 0.000397763 12.5913 0.0391948 -0.000417899)
(0 0 0 0.434928 0.00279126 0.000351213 12.906 0.0410626 -0.000300412)
(-2.62934e-16 -1.02709e-18 0 0.39655 0.00250088 0.000312073 13.2093 0.0428461 -0.000238393)
(0 0 -3.01929e-20 0.361227 0.00222898 0.000279478 13.5016 0.0445377 -0.000223326)
(0 0 0 0.328697 0.00197012 0.000252486 13.7825 0.0461272 -0.000246445)
(0 8.54971e-19 2.67179e-20 0.298706 0.00171827 0.000230156 14.0518 0.0476022 -0.000299072)
(0 0 0 0.270995 0.00146822 0.000211616 14.3098 0.0489457 -0.00037287)
(-1.93682e-16 -7.56568e-19 -4.72855e-20 0.245408 0.00121578 0.000196097 14.5561 0.050138 -0.000460025)
(0 -1.4234e-18 -4.44812e-20 0.221733 0.000956805 0.000182911 14.7907 0.0511498 -0.000553325)
(0 0 0 0.199821 0.000688394 0.000171444 15.0135 0.0519497 -0.00064637)
(0 0 0 0.17954 0.000408092 0.000161109 15.2243 0.0524971 -0.000733681)
(0 0 7.40545e-20 0.160732 0.000114935 0.00015131 15.4231 0.0527433 -0.000810959)
(0 0 0 0.143321 -0.000190013 0.000141693 15.6095 0.0526356 -0.000875717)
(0 0 0 0.127191 -0.000505404 0.000132121 15.7839 0.0521139 -0.000926062)
(-2.52497e-16 -9.86318e-19 -1.2329e-19 0.112233 -0.000828466 0.00012225 15.9459 0.0511132 -0.000961202)
(-2.37523e-16 -9.27823e-19 0 0.0983795 -0.00115448 0.000111666 16.0955 0.0495669 -0.00098243)
(0 0 0 0.0855005 -0.00147685 0.000100168 16.2327 0.0474083 -0.000993115)
(-2.10185e-16 -8.21035e-19 -1.02629e-19 0.0735312 -0.00178707 8.77213e-05 16.3574 0.0445789 -0.000998004)
(0 0 0 0.0623928 -0.00207539 7.4439e-05 16.4693 0.0410258 -0.00100315)
(0 -7.26539e-19 0 0.0519474 -0.00233259 6.06743e-05 16.5683 0.0367158 -0.00101445)
(0 0 0 0.042062 -0.00254921 4.69302e-05 16.6543 0.0316351 -0.00103667)
(3.29174e-16 0 0 0.0325991 -0.00271981 3.39291e-05 16.7261 0.0257945 -0.00107122)
(0 3.02394e-19 7.55986e-20 0.0233705 -0.00284192 2.22548e-05 16.783 0.0192222 -0.00111436)
(0 0 0 0.014169 -0.00291816 1.09963e-05 16.8236 0.0119689 -0.00115773)
(0 0 0 0.00477746 -0.00295732 2.60815e-06 16.8454 0.00408943 -0.00118305)
(0 0 0 4.62777 0.000215295 -0.00120517 0.352384 -9.27416e-05 -0.000403244)
(-1.89434e-17 0 4.62485e-21 4.05179 0.000699168 0.00010249 0.910026 3.68146e-05 -0.00060305)
(0 0 0 3.96701 0.00035783 0.000787407 1.52019 -2.90009e-06 -0.000436361)
(0 4.09255e-21 1.02314e-21 3.80602 9.17464e-05 0.000899157 2.15132 -0.000129768 -3.93863e-05)
(6.30757e-17 3.84984e-21 0 3.59009 -9.7335e-05 0.000342478 2.76816 -0.000330689 0.000278042)
(0 0 0 3.34883 9.49549e-05 -0.000779183 3.34883 -0.000779183 9.49549e-05)
(1.67448e-16 6.81348e-21 -1.70337e-21 3.10204 0.00104257 -0.00206643 3.88663 -0.00142274 -0.000830737)
(0 0 0 2.86019 0.00265938 -0.00299746 4.38388 -0.00186547 -0.00235858)
(0 0 0 2.62867 0.00448794 -0.0032955 4.84621 -0.00178296 -0.00410844)
(-9.29253e-17 0 -4.53737e-20 2.41017 0.00612576 -0.00302013 5.27984 -0.00114484 -0.00575119)
(0 8.53655e-20 0 2.20579 0.00739236 -0.00238237 5.69014 -8.30169e-05 -0.00712016)
(0 8.03028e-20 0 2.01601 0.00825438 -0.00159598 6.08208 0.00125255 -0.00816978)
(0 1.51081e-19 -7.55404e-20 1.84082 0.00874285 -0.000823643 6.45931 0.00274944 -0.00891473)
(-2.91063e-16 -2.84242e-19 1.42121e-19 1.67981 0.00891367 -0.000165831 6.82476 0.00434084 -0.00939474)
(0 2.67384e-19 -6.68461e-20 1.53225 0.00882993 0.000332464 7.18022 0.00599556 -0.00965786)
(0 0 0 1.3973 0.00855334 0.000666734 7.52718 0.00770463 -0.00975304)
(-1.21144e-16 0 0 1.27435 0.00813978 0.000856803 7.86637 0.00946718 -0.00972671)
(0 0 0 1.16244 0.00763753 0.000933361 8.19804 0.0112833 -0.00962038)
(0 -4.18754e-19 0 1.0605 0.00708682 0.000928924 8.52265 0.0131491 -0.00947013)
(0 0 0 0.967759 0.00651937 0.000872485 8.83973 0.0150562 -0.00930518)
(0 0 0 0.883338 0.0059585 0.000787241 9.14942 0.0169917 -0.00914789)
(0 0 0 0.806371 0.00542031 0.000690199 9.45147 0.0189406 -0.00901425)
(3.35779e-16 6.55817e-19 -2.04943e-20 0.736183 0.00491454 0.000592821 9.74554 0.0208866 -0.0089142)
(-3.15865e-16 0 1.92789e-20 0.672037 0.00444569 0.000502129 10.0314 0.0228137 -0.00885265)
(-2.97132e-16 -5.80336e-19 0 0.613284 0.00401472 0.000421857 10.3091 0.0247067 -0.00883027)
(0 0 0 0.559448 0.00361919 0.000353471 10.5779 0.0265533 -0.00884457)
(0 0 0 0.510041 0.00325494 0.000296977 10.8379 0.0283417 -0.00889072)
(0 0 0 0.464588 0.00291706 0.00025154 11.0889 0.0300583 -0.00896233)
(0 0 0 0.422791 0.00259947 0.000215888 11.3306 0.0316952 -0.00905202)
(0 0 -6.67946e-21 0.38424 0.00229602 0.000188584 11.5628 0.0332419 -0.00915202)
(0 0 0 0.348668 0.00200077 0.000168192 11.7853 0.0346822 -0.00925455)
(0 0 0 0.315894 0.00170843 0.000153351 11.9978 0.0360054 -0.00935207)
(0 0 0 0.285601 0.00141343 0.000142833 12.2003 0.0371936 -0.00943766)
(-3.4278e-16 0 0 0.257618 0.00111139 0.000135535 12.3926 0.0382243 -0.00950511)
(0 -1.25957e-18 0 0.23175 0.000799126 0.000130462 12.5745 0.0390725 -0.00954923)
(3.03327e-16 1.18487e-18 0 0.207817 0.000473592 0.000126694 12.746 0.0397074 -0.00956598)
(2.85338e-16 1.1146e-18 0 0.185695 0.000133958 0.000123302 12.9069 0.0400933 -0.00955278)
(-5.36832e-16 -1.0485e-18 -6.55313e-20 0.165248 -0.00021902 0.000119689 13.0574 0.0401888 -0.00950895)
(0 0 0 0.146369 -0.000583898 0.000115563 13.1972 0.0399451 -0.00943518)
(0 0 0 0.128898 -0.000957566 0.000110386 13.3264 0.0393158 -0.00933385)
(0 0 0 0.112732 -0.00133474 0.000103568 13.445 0.0382452 -0.00920958)
(0 -1.64207e-18 -5.13147e-20 0.0978085 -0.0017074 9.48155e-05 13.5531 0.0366846 -0.00906943)
(-3.9544e-16 0 -4.82714e-20 0.0839768 -0.0020665 8.40706e-05 13.6509 0.0345844 -0.00892233)
(0 0 0 0.0711058 -0.00240102 7.15437e-05 13.7382 0.0319035 -0.00877881)
(0 0 0 0.0591072 -0.00269975 5.77765e-05 13.8149 0.0286151 -0.00864941)
(0 6.42918e-19 8.03647e-20 0.0478029 -0.0029521 4.36126e-05 13.881 0.0247045 -0.00854391)
(3.09652e-16 0 3.77993e-20 0.0369969 -0.00315169 3.02246e-05 13.9363 0.0201789 -0.00846803)
(2.91288e-16 2.84461e-19 0 0.0265005 -0.0032954 1.85789e-05 13.9798 0.0150603 -0.00842264)
(0 -2.6759e-19 -6.68976e-20 0.0160652 -0.00338588 8.91079e-06 14.0106 0.00938812 -0.00840343)
(2.57762e-16 6.29302e-20 6.29302e-20 0.00541501 -0.00343213 2.27861e-06 14.0273 0.00320911 -0.0083717)
(0 -1.15621e-21 -4.62485e-21 5.47858 0.000112583 -0.00195292 0.338361 -0.000136708 -0.000411887)
(3.56398e-17 2.17528e-21 -4.35056e-21 4.79618 0.000664615 9.74956e-05 0.860842 -0.000115744 -0.000558539)
(0 0 0 4.71151 0.000115719 0.00121915 1.43321 -0.000369915 -0.000265055)
(0 0 0 4.50648 -0.000249425 0.0014499 2.02186 -0.00075267 0.000369977)
(0 0 0 4.21425 -0.000653835 0.000509223 2.58685 -0.00120578 0.00101795)
(-1.67448e-16 1.70337e-21 -6.81348e-21 3.88663 -0.000830737 -0.00142274 3.10204 -0.00206643 0.00104257)
(0 0 0 3.55992 -4.36319e-05 -0.00351444 3.55992 -0.00351444 -4.36319e-05)
(0 0 0 3.25131 0.00183116 -0.00484501 3.96566 -0.00518084 -0.00209465)
(0 0 0 2.96644 0.00414626 -0.00509247 4.32879 -0.00657199 -0.00452544)
(0 0 0 2.70567 0.00624227 -0.00451329 4.65939 -0.00745142 -0.00680162)
(1.6446e-16 8.03028e-20 -8.03028e-20 2.46799 0.00783547 -0.00351097 4.96595 -0.00779678 -0.00865434)
(0 7.55404e-20 -7.55404e-20 2.25179 0.00889695 -0.00239662 5.2556 -0.00767513 -0.0100274)
(0 0 0 2.05494 0.00949465 -0.00136139 5.5332 -0.00717637 -0.0109697)
(0 0 0 1.8757 0.00972052 -0.000504569 5.80285 -0.00638111 -0.0115609)
(0 -5.03054e-19 0 1.71254 0.00966314 0.000139027 6.06687 -0.00534924 -0.0118796)
(0 0 0 1.564 0.00939792 0.000575774 6.32728 -0.00412153 -0.0119924)
(0 0 0 1.42857 0.00898659 0.000835103 6.58484 -0.00272604 -0.0119527)
(-6.43207e-16 -4.18754e-19 1.04689e-19 1.30512 0.00847926 0.000955527 6.83999 -0.00118416 -0.0118036)
(0 0 0 1.19253 0.00791583 0.000975941 7.09263 0.000484087 -0.011579)
(0 0 0 1.0897 0.00732759 0.000930876 7.34275 0.00225802 -0.0113058)
(1.78474e-16 -6.97163e-19 0 0.995825 0.00673811 0.000847811 7.58968 0.004115 -0.0110049)
(0 0 0 0.909968 0.00616422 0.000747214 7.833 0.0060318 -0.0106919)
(0 -6.16924e-19 0 0.831294 0.00561699 0.000643252 8.07226 0.0079846 -0.010378)
(0 0 0 0.759223 0.00510241 0.000544886 8.30667 0.00995072 -0.0100704)
(0 -1.09184e-18 0 0.693078 0.00462298 0.000457205 8.53582 0.0119092 -0.00977324)
(0 2.05417e-18 0 0.632214 0.00417822 0.000382492 8.75935 0.0138389 -0.00948792)
(0 0 0 0.576261 0.00376402 0.000321209 8.97639 0.0157256 -0.00921358)
(0 0 0 0.524756 0.00337654 0.000272689 9.18683 0.0175519 -0.00894787)
(0 0 0 0.477218 0.00301116 0.000235612 9.39012 0.0193048 -0.00868724)
(-4.11784e-16 -8.04266e-19 2.51333e-20 0.433389 0.00266069 0.00020837 9.58559 0.0209709 -0.00842739)
(0 0 -2.36428e-20 0.39293 0.00231948 0.000189274 9.77348 0.0225367 -0.0081636)
(-3.6439e-16 0 0 0.355575 0.00198245 0.000176678 9.95299 0.0239913 -0.00789113)
(3.4278e-16 1.33898e-18 0 0.321089 0.00164353 0.000169049 10.1239 0.0253156 -0.0076054)
(-3.22451e-16 -1.25957e-18 1.96808e-20 0.289207 0.001298 0.000164987 10.286 0.0264963 -0.00730239)
(-3.03327e-16 -1.18487e-18 0 0.259777 0.000942373 0.000163218 10.4392 0.0275111 -0.0069789)
(0 1.1146e-18 -8.70783e-21 0.232594 0.000573437 0.000162543 10.5833 0.0283375 -0.0066327)
(-5.36832e-16 -2.097e-18 8.19141e-21 0.20749 0.00018973 0.000161772 10.7182 0.0289489 -0.00626303)
(0 0 0 0.184312 -0.000208295 0.000160095 10.8439 0.0293128 -0.00587081)
(4.75045e-16 1.85565e-18 -1.81215e-21 0.162918 -0.000618588 0.000157069 10.9602 0.0293924 -0.00545891)
(0 0 0 0.143205 -0.00103793 0.000152019 11.0671 0.0291496 -0.00503171)
(0 0 0 0.125035 -0.00146068 0.000144214 11.1649 0.0285477 -0.00459592)
(3.9544e-16 0 0 0.108269 -0.00187846 0.000133282 11.2536 0.0275452 -0.00416091)
(0 0 1.13522e-20 0.0927924 -0.00228111 0.00011918 11.3332 0.026102 -0.00373819)
(0 -1.3669e-18 0 0.0784485 -0.00265615 0.000102243 11.404 0.0241891 -0.003341)
(0 0 0 0.0650983 -0.00299193 8.32543e-05 11.466 0.0217846 -0.00298291)
(0 0 1.88997e-20 0.0525867 -0.00327645 6.3438e-05 11.519 0.0188732 -0.00267666)
(0 0 0 0.0406588 -0.00350226 4.44414e-05 11.5631 0.0154623 -0.00243147)
(0 0 0 0.0290836 -0.00366581 2.76614e-05 11.5978 0.0115683 -0.00225173)
(0 -5.03441e-19 -3.14651e-20 0.0176167 -0.00376963 1.48907e-05 11.6222 0.00722485 -0.00213706)
(0 0 0 0.00593664 -0.00382264 4.91822e-06 11.6353 0.0024718 -0.00205719)
(0 0 0 6.33553 -0.000154992 -0.00259597 0.322572 -0.000182227 -0.000301171)
(0 0 -8.1851e-21 5.5359 0.000386549 0.000289585 0.810006 -0.000271822 -0.000270347)
(0 0 0 5.44883 -0.000460753 0.00196957 1.34349 -0.000722517 0.000233358)
(5.9335e-17 0 3.62152e-21 5.19232 -0.000919868 0.00245382 1.88842 -0.00130963 0.00115525)
(1.11632e-16 -1.3627e-20 1.3627e-20 4.81167 -0.00157916 0.00113821 2.40323 -0.00192682 0.00220338)