/*--------------------------------*- C++ -*----------------------------------*\
| =========                 |                                                 |
| \\      /  F ield         | OpenFOAM: The Open Source CFD Toolbox           |
|  \\    /   O peration     | Version:  v1912                                 |
|   \\  /    A nd           | Website:  www.openfoam.com                      |
|    \\/     M anipulation  |                                                 |
\*---------------------------------------------------------------------------*/
FoamFile
{
    version     2.0;
    format      ascii;
    class       volScalarField;
    location    "4000";
    object      k;
}
// * * * * * * * * * * * * * * * * * * * * * * * * * * * * * * * * * * * * * //

dimensions      [0 2 -2 0 0 0 0];


internalField   nonuniform List<scalar> 
2500
(
0.00124973
0.00133531
0.0015344
0.00184441
0.00225082
0.00273506
0.00327867
0.00386521
0.00448089
0.0051145
0.0057571
0.00640171
0.00704303
0.0076772
0.00830158
0.00891453
0.00951519
0.0101032
0.0106787
0.011242
0.0117934
0.0123334
0.0128625
0.0133809
0.013889
0.0143869
0.0148748
0.0153526
0.0158203
0.0162777
0.0167244
0.0171602
0.0175846
0.0179971
0.018397
0.0187838
0.0191565
0.0195143
0.0198562
0.0201812
0.020488
0.0207755
0.0210422
0.0212865
0.0215065
0.0217001
0.0218646
0.0219963
0.0220908
0.022142
0.00133531
0.00120725
0.00123231
0.00136923
0.00159057
0.00187458
0.00220356
0.00256331
0.00294268
0.0033331
0.00372808
0.0041228
0.0045138
0.00489872
0.00527608
0.00564509
0.00600545
0.00635721
0.00670065
0.00703616
0.00736416
0.00768509
0.00799935
0.00830728
0.00860914
0.00890516
0.00919545
0.0094801
0.00975911
0.0100324
0.0102999
0.0105614
0.0108166
0.0110653
0.0113071
0.0115415
0.011768
0.0119862
0.0121952
0.0123945
0.0125832
0.0127605
0.0129254
0.0130767
0.0132134
0.0133339
0.0134364
0.0135186
0.0135776
0.0136095
0.0015344
0.00123231
0.0011334
0.00117125
0.00130475
0.0015063
0.00175605
0.00203913
0.0023442
0.00266261
0.00298781
0.00331493
0.00364052
0.00396222
0.00427859
0.00458883
0.00489267
0.00519016
0.00548155
0.00576722
0.00604758
0.00632302
0.00659392
0.00686058
0.00712327
0.00738217
0.0076374
0.00788902
0.00813702
0.00838135
0.00862185
0.00885835
0.00909058
0.0093182
0.00954082
0.00975795
0.00996903
0.0101735
0.0103705
0.0105594
0.0107392
0.0109089
0.0110675
0.0112137
0.0113462
0.0114634
0.0115633
0.0116437
0.0117014
0.0117327
0.00184441
0.00136923
0.00117125
0.00115442
0.00126012
0.00145103
0.00170203
0.00199508
0.00231666
0.00265639
0.00300637
0.00336068
0.00371506
0.00406659
0.00441345
0.00475463
0.00508971
0.00541869
0.00574181
0.00605944
0.00637202
0.00667999
0.00698372
0.00728356
0.00757977
0.00787255
0.00816202
0.00844824
0.00873117
0.00901072
0.00928671
0.00955889
0.00982693
0.0100904
0.0103488
0.0106016
0.0108479
0.0110871
0.0113183
0.0115404
0.0117522
0.0119527
0.0121403
0.0123136
0.0124708
0.0126101
0.0127289
0.0128245
0.0128933
0.0129306
0.00225082
0.00159057
0.00130475
0.00126012
0.00137595
0.00160097
0.00190119
0.00225296
0.00263899
0.00304631
0.00346521
0.00388857
0.00431131
0.00473004
0.00514267
0.00554808
0.00594584
0.00633601
0.00671892
0.00709504
0.00746491
0.00782908
0.00818802
0.00854215
0.00889181
0.00923725
0.00957862
0.00991601
0.0102494
0.0105787
0.0109037
0.0112241
0.0115396
0.0118497
0.0121537
0.0124511
0.0127408
0.0130222
0.013294
0.0135551
0.0138042
0.0140399
0.0142604
0.0144641
0.0146489
0.0148125
0.0149521
0.0150644
0.0151451
0.0151889
0.00273506
0.00187458
0.0015063
0.00145103
0.00160097
0.00188647
0.00226131
0.00269412
0.00316299
0.00365232
0.00415098
0.00465114
0.00514748
0.00563662
0.00611659
0.00658648
0.00704608
0.00749566
0.00793576
0.00836707
0.0087903
0.00920615
0.00961524
0.0100181
0.0104152
0.0108068
0.0111933
0.0115747
0.011951
0.0123223
0.0126882
0.0130487
0.0134031
0.0137512
0.0140922
0.0144254
0.0147499
0.0150647
0.0153687
0.0156605
0.0159387
0.0162018
0.0164478
0.016675
0.016881
0.0170633
0.0172188
0.0173438
0.0174337
0.0174824
0.00327867
0.00220356
0.00175605
0.00170203
0.00190119
0.00226131
0.00272103
0.00324009
0.003792
0.00435921
0.00493008
0.00549698
0.00605512
0.00660169
0.0071353
0.00765551
0.00816256
0.00865705
0.00913984
0.00961184
0.010074
0.0105271
0.0109721
0.0114095
0.01184
0.0122639
0.0126816
0.0130933
0.0134991
0.013899
0.0142928
0.0146804
0.0150613
0.015435
0.0158009
0.0161583
0.0165062
0.0168435
0.0171691
0.0174816
0.0177795
0.018061
0.0183244
0.0185674
0.0187877
0.0189826
0.0191488
0.0192824
0.0193784
0.0194305
0.00386521
0.00256331
0.00203913
0.00199508
0.00225296
0.00269412
0.00324009
0.0038414
0.00446778
0.00510087
0.00572961
0.00634743
0.0069507
0.00753765
0.00810776
0.0086613
0.00919902
0.00972197
0.0102313
0.0107282
0.0112139
0.0116893
0.0121554
0.012613
0.0130628
0.0135053
0.0139409
0.0143699
0.0147925
0.0152088
0.0156186
0.0160217
0.0164179
0.0168066
0.0171871
0.0175589
0.0179207
0.0182717
0.0186105
0.0189358
0.0192458
0.019539
0.0198132
0.0200663
0.0202958
0.0204988
0.020672
0.0208111
0.0209111
0.0209653
0.00448089
0.00294268
0.0023442
0.00231666
0.00263899
0.00316299
0.003792
0.00446778
0.00515747
0.00584309
0.00651512
0.00716874
0.00780189
0.00841405
0.00900572
0.00957793
0.010132
0.0106695
0.0111918
0.0117004
0.0121966
0.0126816
0.0131566
0.0136225
0.0140799
0.0145296
0.0149722
0.0154079
0.015837
0.0162596
0.0166758
0.0170853
0.0174879
0.0178832
0.0182704
0.0186489
0.0190177
0.0193756
0.0197214
0.0200536
0.0203706
0.0206704
0.0209511
0.0212103
0.0214454
0.0216534
0.0218309
0.0219735
0.022076
0.0221316
0.0051145
0.0033331
0.00266261
0.00265639
0.00304631
0.00365232
0.00435921
0.00510087
0.00584309
0.00656943
0.0072726
0.00794993
0.0086011
0.00922701
0.00982913
0.0104092
0.0109691
0.0115107
0.0120359
0.0125462
0.0130433
0.0135285
0.014003
0.0144678
0.0149239
0.015372
0.0158128
0.0162467
0.0166741
0.0170952
0.0175101
0.0179187
0.0183208
0.0187159
0.0191035
0.0194828
0.019853
0.0202127
0.0205607
0.0208955
0.0212154
0.0215183
0.0218023
0.0220647
0.0223029
0.0225139
0.0226939
0.0228386
0.0229426
0.022999
0.0057571
0.00372808
0.00298781
0.00300637
0.00346521
0.00415098
0.00493008
0.00572961
0.00651512
0.0072726
0.00799755
0.0086897
0.00935051
0.00998218
0.0105871
0.0111678
0.0117264
0.0122653
0.0127865
0.0132918
0.013783
0.0142615
0.0147287
0.0151858
0.0156339
0.0160737
0.0165061
0.0169317
0.0173509
0.017764
0.0181714
0.0185729
0.0189686
0.019358
0.0197407
0.0201159
0.0204828
0.02084
0.0211863
0.0215202
0.0218398
0.022143
0.0224277
0.0226911
0.0229306
0.0231429
0.0233242
0.02347
0.0235747
0.0236316
0.00640171
0.0041228
0.00331493
0.00336068
0.00388857
0.00465114
0.00549698
0.00634743
0.00716874
0.00794993
0.0086897
0.00939027
0.0100549
0.0106871
0.01129
0.0118665
0.0124195
0.0129514
0.0134643
0.0139603
0.0144412
0.0149087
0.0153642
0.0158089
0.0162442
0.0166708
0.0170899
0.017502
0.0179079
0.018308
0.0187026
0.0190921
0.0194764
0.0198553
0.0202284
0.0205951
0.0209545
0.0213054
0.0216465
0.0219762
0.0222927
0.0225937
0.0228768
0.0231395
0.0233786
0.0235908
0.0237723
0.0239183
0.0240233
0.0240803
0.00704303
0.0045138
0.00364052
0.00371506
0.00431131
0.00514748
0.00605512
0.0069507
0.00780189
0.0086011
0.00935051
0.0100549
0.0107194
0.0113486
0.0119463
0.012516
0.0130608
0.0135831
0.0140853
0.0145696
0.0150378
0.0154916
0.0159325
0.016362
0.0167813
0.0171915
0.0175937
0.0179887
0.0183773
0.0187603
0.0191381
0.0195113
0.0198798
0.0202439
0.0206032
0.0209573
0.0213053
0.0216463
0.0219788
0.0223013
0.0226119
0.0229082
0.0231878
0.0234478
0.023685
0.023896
0.0240766
0.0242222
0.0243269
0.0243837
0.0076772
0.00489872
0.00396222
0.00406659
0.00473004
0.00563662
0.00660169
0.00753765
0.00841405
0.00922701
0.00998218
0.0106871
0.0113486
0.0119723
0.0125629
0.0131241
0.0136591
0.0141706
0.014661
0.0151324
0.0155866
0.0160254
0.0164504
0.016863
0.0172646
0.0176563
0.0180393
0.0184146
0.0187833
0.0191461
0.0195038
0.0198571
0.0202063
0.0205518
0.0208935
0.0212311
0.0215641
0.0218915
0.0222121
0.0225243
0.0228261
0.0231153
0.0233891
0.0236446
0.0238785
0.0240869
0.0242658
0.0244101
0.024514
0.0245705
0.00830158
0.00527608
0.00427859
0.00441345
0.00514267
0.00611659
0.0071353
0.00810776
0.00900572
0.00982913
0.0105871
0.01129
0.0119463
0.0125629
0.013145
0.0136966
0.0142211
0.0147212
0.0151992
0.0156573
0.0160972
0.0165206
0.0169291
0.0173242
0.0177072
0.0180794
0.0184419
0.0187961
0.0191429
0.0194835
0.0198187
0.0201494
0.0204763
0.0208
0.0211207
0.0214384
0.0217528
0.0220632
0.0223685
0.0226671
0.0229573
0.0232367
0.0235025
0.0237515
0.0239803
0.0241849
0.0243609
0.0245032
0.0246058
0.0246616
0.00891453
0.00564509
0.00458883
0.00475463
0.00554808
0.00658648
0.00765551
0.0086613
0.00957793
0.0104092
0.0111678
0.0118665
0.012516
0.0131241
0.0136966
0.0142379
0.0147514
0.0152398
0.0157054
0.0161501
0.0165758
0.0169839
0.0173761
0.0177537
0.018118
0.0184704
0.0188121
0.0191444
0.0194684
0.0197854
0.0200965
0.0204027
0.0207051
0.0210043
0.0213011
0.0215958
0.0218883
0.0221783
0.0224649
0.0227468
0.0230223
0.0232891
0.0235443
0.0237847
0.0240066
0.0242058
0.0243778
0.0245172
0.0246179
0.0246727
0.00951519
0.00600545
0.00489267
0.00508971
0.00594584
0.00704608
0.00816256
0.00919902
0.010132
0.0109691
0.0117264
0.0124195
0.0130608
0.0136591
0.0142211
0.0147514
0.0152534
0.0157299
0.0161831
0.0166148
0.0170266
0.0174199
0.0177961
0.0181567
0.0185027
0.0188356
0.0191566
0.0194668
0.0197678
0.0200606
0.0203467
0.0206272
0.0209033
0.0211762
0.0214468
0.0217158
0.0219835
0.02225
0.0225147
0.0227766
0.0230343
0.0232854
0.0235273
0.0237566
0.0239696
0.0241618
0.0243283
0.0244638
0.024562
0.0246155
0.0101032
0.00635721
0.00519016
0.00541869
0.00633601
0.00749566
0.00865705
0.00972197
0.0106695
0.0115107
0.0122653
0.0129514
0.0135831
0.0141706
0.0147212
0.0152398
0.0157299
0.0161944
0.0166352
0.017054
0.0174522
0.0178312
0.0181922
0.0185363
0.0188648
0.0191788
0.0194795
0.0197682
0.0200462
0.0203149
0.0205756
0.0208298
0.0210788
0.021324
0.0215667
0.0218078
0.0220482
0.0222884
0.0225281
0.0227669
0.0230034
0.0232359
0.0234616
0.0236772
0.0238789
0.0240621
0.0242217
0.0243521
0.0244469
0.0244987
0.0106787
0.00670065
0.00548155
0.00574181
0.00671892
0.00793576
0.00913984
0.0102313
0.0111918
0.0120359
0.0127865
0.0134643
0.0140853
0.014661
0.0151992
0.0157054
0.0161831
0.0166352
0.0170635
0.0174695
0.0178546
0.0182198
0.0185661
0.0188945
0.0192062
0.0195021
0.0197833
0.0200512
0.0203069
0.0205518
0.0207874
0.0210151
0.0212366
0.0214533
0.0216669
0.0218786
0.0220898
0.0223011
0.0225132
0.0227258
0.0229381
0.0231487
0.0233551
0.0235542
0.023742
0.0239141
0.024065
0.024189
0.0242795
0.0243291
0.011242
0.00703616
0.00576722
0.00605944
0.00709504
0.00836707
0.00961184
0.0107282
0.0117004
0.0125462
0.0132918
0.0139603
0.0145696
0.0151324
0.0156573
0.0161501
0.0166148
0.017054
0.0174695
0.0178628
0.0182348
0.0185866
0.0189188
0.0192323
0.0195279
0.0198066
0.0200693
0.0203172
0.0205514
0.0207733
0.0209843
0.0211859
0.0213799
0.0215679
0.0217517
0.021933
0.0221134
0.0222941
0.0224761
0.0226598
0.022845
0.0230305
0.0232145
0.023394
0.0235652
0.0237236
0.0238639
0.0239799
0.0240651
0.0241118
0.0117934
0.00736416
0.00604758
0.00637202
0.00746491
0.0087903
0.010074
0.0112139
0.0121966
0.0130433
0.013783
0.0144412
0.0150378
0.0155866
0.0160972
0.0165758
0.0170266
0.0174522
0.0178546
0.0182348
0.0185939
0.0189323
0.0192508
0.01955
0.0198303
0.0200927
0.0203378
0.0205667
0.0207803
0.0209801
0.0211673
0.0213435
0.0215104
0.0216699
0.0218238
0.0219742
0.0221228
0.0222714
0.0224215
0.022574
0.0227292
0.0228867
0.0230451
0.0232018
0.0233535
0.0234956
0.0236229
0.0237292
0.0238077
0.023851
0.0123334
0.00768509
0.00632302
0.00667999
0.00782908
0.00920615
0.0105271
0.0116893
0.0126816
0.0135285
0.0142615
0.0149087
0.0154916
0.0160254
0.0165206
0.0169839
0.0174199
0.0178312
0.0182198
0.0185866
0.0189323
0.0192575
0.0195625
0.0198477
0.0201134
0.0203602
0.0205886
0.0207994
0.0209935
0.0211721
0.0213365
0.0214882
0.0216288
0.0217602
0.0218845
0.0220038
0.0221202
0.0222359
0.0223526
0.0224719
0.0225949
0.0227216
0.0228513
0.0229821
0.0231111
0.0232341
0.0233458
0.0234403
0.0235108
0.0235499
0.0128625
0.00799935
0.00659392
0.00698372
0.00818802
0.00961524
0.0109721
0.0121554
0.0131566
0.014003
0.0147287
0.0153642
0.0159325
0.0164504
0.0169291
0.0173761
0.0177961
0.0181922
0.0185661
0.0189188
0.0192508
0.0195625
0.019854
0.0201254
0.0203769
0.0206086
0.020821
0.0210147
0.0211903
0.0213488
0.0214915
0.0216196
0.0217348
0.021839
0.0219342
0.0220228
0.0221069
0.0221891
0.0222715
0.0223563
0.0224449
0.0225384
0.0226366
0.0227385
0.0228417
0.0229424
0.023036
0.0231164
0.0231772
0.0232113
0.0133809
0.00830728
0.00686058
0.00728356
0.00854215
0.0100181
0.0114095
0.012613
0.0136225
0.0144678
0.0151858
0.0158089
0.016362
0.016863
0.0173242
0.0177537
0.0181567
0.0185363
0.0188945
0.0192323
0.01955
0.0198477
0.0201254
0.020383
0.0206204
0.0208375
0.0210345
0.0212118
0.0213698
0.0215092
0.0216312
0.0217368
0.0218277
0.0219056
0.0219725
0.0220309
0.022083
0.0221317
0.0221793
0.0222285
0.0222815
0.0223397
0.0224039
0.0224739
0.0225482
0.0226236
0.0226961
0.0227601
0.0228094
0.0228373
0.013889
0.00860914
0.00712327
0.00757977
0.00889181
0.0104152
0.01184
0.0130628
0.0140799
0.0149239
0.0156339
0.0162442
0.0167813
0.0172646
0.0177072
0.018118
0.0185027
0.0188648
0.0192062
0.0195279
0.0198303
0.0201134
0.0203769
0.0206204
0.0208436
0.0210463
0.0212283
0.0213897
0.0215308
0.0216521
0.0217543
0.0218385
0.0219061
0.0219588
0.0219984
0.0220274
0.0220482
0.0220636
0.0220764
0.0220896
0.0221057
0.022127
0.0221551
0.0221907
0.022233
0.0222801
0.0223285
0.0223735
0.0224094
0.0224302
0.0143869
0.00890516
0.00738217
0.00787255
0.00923725
0.0108068
0.0122639
0.0135053
0.0145296
0.015372
0.0160737
0.0166708
0.0171915
0.0176563
0.0180794
0.0184704
0.0188356
0.0191788
0.0195021
0.0198066
0.0200927
0.0203602
0.0206086
0.0208375
0.0210463
0.0212344
0.0214016
0.0215475
0.0216723
0.0217761
0.0218595
0.0219233
0.0219687
0.0219971
0.0220106
0.0220111
0.0220014
0.0219841
0.0219624
0.0219393
0.021918
0.0219013
0.0218917
0.0218905
0.0218983
0.0219141
0.0219355
0.0219587
0.0219791
0.0219916
0.0148748
0.00919545
0.0076374
0.00816202
0.00957862
0.0111933
0.0126816
0.0139409
0.0149722
0.0158128
0.0165061
0.0170899
0.0175937
0.0180393
0.0184419
0.0188121
0.0191566
0.0194795
0.0197833
0.0200693
0.0203378
0.0205886
0.020821
0.0210345
0.0212283
0.0214016
0.0215538
0.0216843
0.0217931
0.0218799
0.0219452
0.0219894
0.0220136
0.0220189
0.0220072
0.0219804
0.0219411
0.021892
0.0218362
0.0217771
0.0217182
0.0216628
0.0216141
0.0215744
0.0215453
0.0215271
0.0215187
0.0215176
0.0215204
0.0215233
0.0153526
0.0094801
0.00788902
0.00844824
0.00991601
0.0115747
0.0130933
0.0143699
0.0154079
0.0162467
0.0169317
0.017502
0.0179887
0.0184146
0.0187961
0.0191444
0.0194668
0.0197682
0.0200512
0.0203172
0.0205667
0.0207994
0.0210147
0.0212118
0.0213897
0.0215475
0.0216843
0.0217994
0.0218922
0.0219624
0.02201
0.0220354
0.0220392
0.0220224
0.0219865
0.0219335
0.0218655
0.0217855
0.0216964
0.0216018
0.0215055
0.0214111
0.0213225
0.0212429
0.021175
0.0211205
0.0210796
0.0210517
0.0210348
0.0210269
0.0158203
0.00975911
0.00813702
0.00873117
0.0102494
0.011951
0.0134991
0.0147925
0.015837
0.0166741
0.0173509
0.0179079
0.0183773
0.0187833
0.0191429
0.0194684
0.0197678
0.0200462
0.0203069
0.0205514
0.0207803
0.0209935
0.0211903
0.0213698
0.0215308
0.0216723
0.0217931
0.0218922
0.0219688
0.0220224
0.0220527
0.0220597
0.0220437
0.0220056
0.0219465
0.0218682
0.0217727
0.0216627
0.0215413
0.0214119
0.0212785
0.0211453
0.0210165
0.0208961
0.0207879
0.020695
0.0206195
0.0205624
0.0205238
0.020504
0.0162777
0.0100324
0.00838135
0.00901072
0.0105787
0.0123223
0.013899
0.0152088
0.0162596
0.0170952
0.017764
0.018308
0.0187603
0.0191461
0.0194835
0.0197854
0.0200606
0.0203149
0.0205518
0.0207733
0.0209801
0.0211721
0.0213488
0.0215092
0.0216521
0.0217761
0.0218799
0.0219624
0.0220224
0.0220592
0.0220721
0.0220609
0.0220256
0.0219667
0.0218853
0.0217826
0.0216606
0.0215216
0.0213688
0.0212055
0.0210358
0.020864
0.0206949
0.0205332
0.0203838
0.0202512
0.0201391
0.0200508
0.0199888
0.019956
0.0167244
0.0102999
0.00862185
0.00928671
0.0109037
0.0126882
0.0142928
0.0156186
0.0166758
0.0175101
0.0181714
0.0187026
0.0191381
0.0195038
0.0198187
0.0200965
0.0203467
0.0205756
0.0207874
0.0209843
0.0211673
0.0213365
0.0214915
0.0216312
0.0217543
0.0218595
0.0219452
0.02201
0.0220527
0.0220721
0.0220673
0.0220379
0.0219834
0.0219043
0.021801
0.0216746
0.0215269
0.02136
0.0211768
0.0209805
0.0207752
0.0205655
0.0203564
0.0201534
0.0199623
0.0197889
0.0196389
0.0195178
0.019431
0.0193842
0.0171602
0.0105614
0.00885835
0.00955889
0.0112241
0.0130487
0.0146804
0.0160217
0.0170853
0.0179187
0.0185729
0.0190921
0.0195113
0.0198571
0.0201494
0.0204027
0.0206272
0.0208298
0.0210151
0.0211859
0.0213435
0.0214882
0.0216196
0.0217368
0.0218385
0.0219233
0.0219894
0.0220354
0.0220597
0.0220609
0.0220379
0.0219898
0.0219161
0.0218167
0.0216919
0.0215425
0.0213698
0.0211758
0.020963
0.0207346
0.0204947
0.0202478
0.0199994
0.0197554
0.0195224
0.0193078
0.019119
0.0189642
0.0188515
0.0187901
0.0175846
0.0108166
0.00909058
0.00982693
0.0115396
0.0134031
0.0150613
0.0164179
0.0174879
0.0183208
0.0189686
0.0194764
0.0198798
0.0202063
0.0204763
0.0207051
0.0209033
0.0210788
0.0212366
0.0213799
0.0215104
0.0216288
0.0217348
0.0218277
0.0219061
0.0219687
0.0220136
0.0220392
0.0220437
0.0220256
0.0219834
0.0219161
0.0218228
0.0217031
0.0215568
0.0213846
0.0211874
0.0209668
0.0207253
0.0204657
0.020192
0.0199088
0.0196218
0.0193373
0.019063
0.0188072
0.0185794
0.0183903
0.0182512
0.0181747
0.0179971
0.0110653
0.0093182
0.0100904
0.0118497
0.0137512
0.015435
0.0168066
0.0178832
0.0187159
0.019358
0.0198553
0.0202439
0.0205518
0.0208
0.0210043
0.0211762
0.021324
0.0214533
0.0215679
0.0216699
0.0217602
0.021839
0.0219056
0.0219588
0.0219971
0.0220189
0.0220224
0.0220056
0.0219667
0.0219043
0.0218167
0.0217031
0.0215624
0.0213945
0.0211995
0.020978
0.0207314
0.0204617
0.0201717
0.019865
0.0195465
0.0192217
0.0188977
0.0185826
0.0182862
0.0180198
0.0177966
0.0176311
0.0175396
0.018397
0.0113071
0.00954082
0.0103488
0.0121537
0.0140922
0.0158009
0.0171871
0.0182704
0.0191035
0.0197407
0.0202284
0.0206032
0.0208935
0.0211207
0.0213011
0.0214468
0.0215667
0.0216669
0.0217517
0.0218238
0.0218845
0.0219342
0.0219725
0.0219984
0.0220106
0.0220072
0.0219865
0.0219465
0.0218853
0.021801
0.0216919
0.0215568
0.0213945
0.0212044
0.0209862
0.0207404
0.0204679
0.0201704
0.0198505
0.0195118
0.0191587
0.0187972
0.0184346
0.0180799
0.017744
0.01744
0.0171836
0.0169924
0.0168862
0.0187838
0.0115415
0.00975795
0.0106016
0.0124511
0.0144254
0.0161583
0.0175589
0.0186489
0.0194828
0.0201159
0.0205951
0.0209573
0.0212311
0.0214384
0.0215958
0.0217158
0.0218078
0.0218786
0.021933
0.0219742
0.0220038
0.0220228
0.0220309
0.0220274
0.0220111
0.0219804
0.0219335
0.0218682
0.0217826
0.0216746
0.0215425
0.0213846
0.0211995
0.0209862
0.0207443
0.0204737
0.0201752
0.0198502
0.0195008
0.0191305
0.0187437
0.0183465
0.0179466
0.0175538
0.01718
0.0168403
0.0165524
0.016337
0.0162171
0.0191565
0.011768
0.00996903
0.0108479
0.0127408
0.0147499
0.0165062
0.0179207
0.0190177
0.019853
0.0204828
0.0209545
0.0213053
0.0215641
0.0217528
0.0218883
0.0219835
0.0220482
0.0220898
0.0221134
0.0221228
0.0221202
0.0221069
0.022083
0.0220482
0.0220014
0.0219411
0.0218655
0.0217727
0.0216606
0.0215269
0.0213698
0.0211874
0.020978
0.0207404
0.0204737
0.0201778
0.0198528
0.0195
0.0191213
0.0187199
0.0183003
0.0178685
0.0174328
0.0170037
0.0165944
0.0162215
0.0159051
0.0156681
0.0155361
0.0195143
0.0119862
0.0101735
0.0110871
0.0130222
0.0150647
0.0168435
0.0182717
0.0193756
0.0202127
0.02084
0.0213054
0.0216463
0.0218915
0.0220632
0.0221783
0.02225
0.0222884
0.0223011
0.0222941
0.0222714
0.0222359
0.0221891
0.0221317
0.0220636
0.0219841
0.021892
0.0217855
0.0216627
0.0215216
0.02136
0.0211758
0.0209668
0.0207314
0.0204679
0.0201752
0.0198528
0.0195008
0.0191198
0.0187117
0.0182795
0.0178277
0.0173626
0.0168929
0.01643
0.0159886
0.0155866
0.0152459
0.0149912
0.0148496
0.0198562
0.0121952
0.0103705
0.0113183
0.013294
0.0153687
0.0171691
0.0186105
0.0197214
0.0205607
0.0211863
0.0216465
0.0219788
0.0222121
0.0223685
0.0224649
0.0225147
0.0225281
0.0225132
0.0224761
0.0224215
0.0223526
0.0222715
0.0221793
0.0220764
0.0219624
0.0218362
0.0216964
0.0215413
0.0213688
0.0211768
0.020963
0.0207253
0.0204617
0.0201704
0.0198502
0.0195
0.0191198
0.01871
0.0182723
0.0178096
0.0173264
0.0168295
0.0163282
0.0158351
0.015366
0.0149407
0.0145819
0.0143151
0.0141674
0.0201812
0.0123945
0.0105594
0.0115404
0.0135551
0.0156605
0.0174816
0.0189358
0.0200536
0.0208955
0.0215202
0.0219762
0.0223013
0.0225243
0.0226671
0.0227468
0.0227766
0.0227669
0.0227258
0.0226598
0.022574
0.0224719
0.0223563
0.0222285
0.0220896
0.0219393
0.0217771
0.0216018
0.0214119
0.0212055
0.0209805
0.0207346
0.0204657
0.0201717
0.0198505
0.0195008
0.0191213
0.0187117
0.0182723
0.0178046
0.0173116
0.0167981
0.0162715
0.0157419
0.0152234
0.0147334
0.0142925
0.0139241
0.0136527
0.0135035
0.020488
0.0125832
0.0107392
0.0117522
0.0138042
0.0159387
0.0177795
0.0192458
0.0203706
0.0212154
0.0218398
0.0222927
0.0226119
0.0228261
0.0229573
0.0230223
0.0230343
0.0230034
0.0229381
0.022845
0.0227292
0.0225949
0.0224449
0.0222815
0.0221057
0.021918
0.0217182
0.0215055
0.0212785
0.0210358
0.0207752
0.0204947
0.020192
0.019865
0.0195118
0.0191305
0.0187199
0.0182795
0.0178096
0.0173116
0.0167888
0.0162466
0.0156932
0.0151402
0.0146032
0.0141011
0.0136553
0.0132881
0.0130212
0.012876
0.0207755
0.0127605
0.0109089
0.0119527
0.0140399
0.0162018
0.018061
0.019539
0.0206704
0.0215183
0.022143
0.0225937
0.0229082
0.0231153
0.0232367
0.0232891
0.0232854
0.0232359
0.0231487
0.0230305
0.0228867
0.0227216
0.0225384
0.0223397
0.022127
0.0219013
0.0216628
0.0214111
0.0211453
0.020864
0.0205655
0.0202478
0.0199088
0.0195465
0.0191587
0.0187437
0.0183003
0.0178277
0.0173264
0.0167981
0.0162466
0.0156781
0.0151024
0.0145328
0.0139866
0.0134841
0.0130462
0.0126924
0.0124398
0.0123042
0.0210422
0.0129254
0.0110675
0.0121403
0.0142604
0.0164478
0.0183244
0.0198132
0.0209511
0.0218023
0.0224277
0.0228768
0.0231878
0.0233891
0.0235025
0.0235443
0.0235273
0.0234616
0.0233551
0.0232145
0.0230451
0.0228513
0.0226366
0.0224039
0.0221551
0.0218917
0.0216141
0.0213225
0.0210165
0.0206949
0.0203564
0.0199994
0.0196218
0.0192217
0.0187972
0.0183465
0.0178685
0.0173626
0.0168295
0.0162715
0.0156932
0.0151024
0.0145106
0.0139336
0.0133902
0.0129009
0.0124846
0.0121562
0.0119264
0.0118048
0.0212865
0.0130767
0.0112137
0.0123136
0.0144641
0.016675
0.0185674
0.0200663
0.0212103
0.0220647
0.0226911
0.0231395
0.0234478
0.0236446
0.0237515
0.0237847
0.0237566
0.0236772
0.0235542
0.023394
0.0232018
0.0229821
0.0227385
0.0224739
0.0221907
0.0218905
0.0215744
0.0212429
0.0208961
0.0205332
0.0201534
0.0197554
0.0193373
0.0188977
0.0184346
0.0179466
0.0174328
0.0168929
0.0163282
0.0157419
0.0151402
0.0145328
0.0139336
0.0133604
0.0128333
0.012371
0.0119884
0.0116943
0.0114928
0.0113875
0.0215065
0.0132134
0.0113462
0.0124708
0.0146489
0.016881
0.0187877
0.0202958
0.0214454
0.0223029
0.0229306
0.0233786
0.023685
0.0238785
0.0239803
0.0240066
0.0239696
0.0238789
0.023742
0.0235652
0.0233535
0.0231111
0.0228417
0.0225482
0.022233
0.0218983
0.0215453
0.021175
0.0207879
0.0203838
0.0199623
0.0195224
0.019063
0.0185826
0.0180799
0.0175538
0.0170037
0.01643
0.0158351
0.0152234
0.0146032
0.0139866
0.0133902
0.0128333
0.012335
0.011911
0.01157
0.0113143
0.0111424
0.0110538
0.0217001
0.0133339
0.0114634
0.0126101
0.0148125
0.0170633
0.0189826
0.0204988
0.0216534
0.0225139
0.0231429
0.0235908
0.023896
0.0240869
0.0241849
0.0242058
0.0241618
0.0240621
0.0239141
0.0237236
0.0234956
0.0232341
0.0229424
0.0226236
0.0222801
0.0219141
0.0215271
0.0211205
0.020695
0.0202512
0.0197889
0.0193078
0.0188072
0.0182862
0.017744
0.01718
0.0165944
0.0159886
0.015366
0.0147334
0.0141011
0.0134841
0.0129009
0.012371
0.011911
0.011531
0.0112335
0.0110154
0.0108711
0.0107975
0.0218646
0.0134364
0.0115633
0.0127289
0.0149521
0.0172188
0.0191488
0.020672
0.0218309
0.0226939
0.0233242
0.0237723
0.0240766
0.0242658
0.0243609
0.0243778
0.0243283
0.0242217
0.024065
0.0238639
0.0236229
0.0233458
0.023036
0.0226961
0.0223285
0.0219355
0.0215187
0.0210796
0.0206195
0.0201391
0.0196389
0.019119
0.0185794
0.0180198
0.01744
0.0168403
0.0162215
0.0155866
0.0149407
0.0142925
0.0136553
0.0130462
0.0124846
0.0119884
0.01157
0.0112335
0.0109762
0.0107909
0.0106702
0.0106091
0.0219963
0.0135186
0.0116437
0.0128245
0.0150644
0.0173438
0.0192824
0.0208111
0.0219735
0.0228386
0.02347
0.0239183
0.0242222
0.0244101
0.0245032
0.0245172
0.0244638
0.0243521
0.024189
0.0239799
0.0237292
0.0234403
0.0231164
0.0227601
0.0223735
0.0219587
0.0215176
0.0210517
0.0205624
0.0200508
0.0195178
0.0189642
0.0183903
0.0177966
0.0171836
0.0165524
0.0159051
0.0152459
0.0145819
0.0139241
0.0132881
0.0126924
0.0121562
0.0116943
0.0113143
0.0110154
0.0107909
0.0106318
0.0105297
0.0104787
0.0220908
0.0135776
0.0117014
0.0128933
0.0151451
0.0174337
0.0193784
0.0209111
0.022076
0.0229426
0.0235747
0.0240233
0.0243269
0.024514
0.0246058
0.0246179
0.024562
0.0244469
0.0242795
0.0240651
0.0238077
0.0235108
0.0231772
0.0228094
0.0224094
0.0219791
0.0215204
0.0210348
0.0205238
0.0199888
0.019431
0.0188515
0.0182512
0.0176311
0.0169924
0.016337
0.0156681
0.0149912
0.0143151
0.0136527
0.0130212
0.0124398
0.0119264
0.0114928
0.0111424
0.0108711
0.0106702
0.0105297
0.010441
0.0103976
0.022142
0.0136095
0.0117327
0.0129306
0.0151889
0.0174824
0.0194305
0.0209653
0.0221316
0.022999
0.0236316
0.0240803
0.0243837
0.0245705
0.0246616
0.0246727
0.0246155
0.0244987
0.0243291
0.0241118
0.023851
0.0235499
0.0232113
0.0228373
0.0224302
0.0219916
0.0215233
0.0210269
0.020504
0.019956
0.0193842
0.0187901
0.0181747
0.0175396
0.0168862
0.0162171
0.0155361
0.0148496
0.0141674
0.0135035
0.012876
0.0123042
0.0118048
0.0113875
0.0110538
0.0107975
0.0106091
0.0104787
0.0103976
0.0103591
)
;

boundaryField
{
    bottomWall
    {
        type            kqRWallFunction;
        value           nonuniform List<scalar> 
50
(
0.00124973
0.00133531
0.0015344
0.00184441
0.00225082
0.00273506
0.00327867
0.00386521
0.00448089
0.0051145
0.0057571
0.00640171
0.00704303
0.0076772
0.00830158
0.00891453
0.00951519
0.0101032
0.0106787
0.011242
0.0117934
0.0123334
0.0128625
0.0133809
0.013889
0.0143869
0.0148748
0.0153526
0.0158203
0.0162777
0.0167244
0.0171602
0.0175846
0.0179971
0.018397
0.0187838
0.0191565
0.0195143
0.0198562
0.0201812
0.020488
0.0207755
0.0210422
0.0212865
0.0215065
0.0217001
0.0218646
0.0219963
0.0220908
0.022142
)
;
    }
    leftWall
    {
        type            kqRWallFunction;
        value           nonuniform List<scalar> 
50
(
0.00124973
0.00133531
0.0015344
0.00184441
0.00225082
0.00273506
0.00327867
0.00386521
0.00448089
0.0051145
0.0057571
0.00640171
0.00704303
0.0076772
0.00830158
0.00891453
0.00951519
0.0101032
0.0106787
0.011242
0.0117934
0.0123334
0.0128625
0.0133809
0.013889
0.0143869
0.0148748
0.0153526
0.0158203
0.0162777
0.0167244
0.0171602
0.0175846
0.0179971
0.018397
0.0187838
0.0191565
0.0195143
0.0198562
0.0201812
0.020488
0.0207755
0.0210422
0.0212865
0.0215065
0.0217001
0.0218646
0.0219963
0.0220908
0.022142
)
;
    }
    topSym
    {
        type            symmetryPlane;
    }
    rightSym
    {
        type            symmetryPlane;
    }
    inlet
    {
        type            cyclic;
    }
    outlet
    {
        type            cyclic;
    }
}


// ************************************************************************* //
