/*--------------------------------*- C++ -*----------------------------------*\
| =========                 |                                                 |
| \\      /  F ield         | OpenFOAM: The Open Source CFD Toolbox           |
|  \\    /   O peration     | Version:  v1912                                 |
|   \\  /    A nd           | Website:  www.openfoam.com                      |
|    \\/     M anipulation  |                                                 |
\*---------------------------------------------------------------------------*/
FoamFile
{
    version     2.0;
    format      ascii;
    class       volScalarField;
    location    "4000";
    object      nut;
}
// * * * * * * * * * * * * * * * * * * * * * * * * * * * * * * * * * * * * * //

dimensions      [0 2 -1 0 0 0 0];


internalField   nonuniform List<scalar> 
2500
(
6.50421e-05
6.16571e-05
6.10326e-05
6.30583e-05
6.66731e-05
7.10653e-05
7.57207e-05
8.03452e-05
8.47846e-05
8.89668e-05
9.28661e-05
9.64818e-05
9.98266e-05
0.000102919
0.000105782
0.000108438
0.000110908
0.000113212
0.000115369
0.000117396
0.000119305
0.00012111
0.00012282
0.000124445
0.000125992
0.000127467
0.000128876
0.000130223
0.000131511
0.000132745
0.000133925
0.000135056
0.000136137
0.00013717
0.000138156
0.000139095
0.000139987
0.000140833
0.000141632
0.000142383
0.000143084
0.000143735
0.000144333
0.000144877
0.000145363
0.000145789
0.000146148
0.000146434
0.000146639
0.000146749
6.16571e-05
6.00451e-05
5.78045e-05
5.72499e-05
5.85228e-05
6.10696e-05
6.42959e-05
6.7781e-05
7.12719e-05
7.46314e-05
7.77935e-05
8.07334e-05
8.34496e-05
8.59534e-05
8.82624e-05
9.03967e-05
9.23766e-05
9.42213e-05
9.59484e-05
9.75731e-05
9.91088e-05
0.000100567
0.000101956
0.000103286
0.000104562
0.000105789
0.000106973
0.000108117
0.000109224
0.000110296
0.000111335
0.000112342
0.000113318
0.000114264
0.000115179
0.000116063
0.000116914
0.000117733
0.000118516
0.000119261
0.000119967
0.00012063
0.000121246
0.000121811
0.000122322
0.000122772
0.000123154
0.00012346
0.00012368
0.000123799
6.10326e-05
5.78045e-05
5.57163e-05
5.52754e-05
5.63663e-05
5.87717e-05
6.20383e-05
6.57264e-05
6.95211e-05
7.32289e-05
7.67438e-05
8.00173e-05
8.30362e-05
8.58087e-05
8.8354e-05
9.06968e-05
9.28633e-05
9.48785e-05
9.67654e-05
9.85443e-05
0.000100232
0.000101844
0.000103392
0.000104886
0.000106333
0.000107742
0.000109116
0.000110461
0.000111779
0.000113073
0.000114345
0.000115596
0.000116825
0.000118033
0.000119218
0.000120378
0.000121511
0.000122614
0.000123683
0.000124713
0.000125699
0.000126635
0.000127513
0.000128326
0.000129066
0.000129721
0.000130282
0.000130732
0.000131056
0.000131232
6.30583e-05
5.72499e-05
5.52754e-05
5.70154e-05
6.08398e-05
6.59195e-05
7.17479e-05
7.78998e-05
8.40427e-05
8.99528e-05
9.55002e-05
0.000100625
0.000105315
0.000109589
0.000113481
0.000117036
0.0001203
0.000123317
0.000126126
0.000128764
0.00013126
0.000133639
0.000135924
0.000138131
0.000140274
0.000142364
0.000144412
0.000146423
0.000148405
0.00015036
0.000152292
0.000154202
0.000156092
0.000157958
0.000159801
0.000161616
0.000163398
0.000165143
0.000166843
0.00016849
0.000170073
0.000171583
0.000173005
0.000174327
0.000175533
0.000176606
0.000177524
0.000178264
0.000178797
0.000179087
6.66731e-05
5.85228e-05
5.63663e-05
6.08398e-05
6.9406e-05
7.99444e-05
9.12224e-05
0.000102545
0.000113479
0.000123759
0.000133242
0.000141874
0.000149665
0.000156665
0.00016295
0.000168606
0.000173721
0.00017838
0.000182659
0.000186624
0.000190332
0.000193833
0.000197165
0.000200363
0.000203452
0.000206455
0.00020939
0.000212272
0.00021511
0.000217914
0.00022069
0.000223441
0.00022617
0.000228877
0.000231557
0.000234208
0.000236822
0.00023939
0.000241903
0.000244346
0.000246704
0.00024896
0.000251093
0.00025308
0.000254898
0.000256519
0.000257909
0.000259031
0.000259839
0.000260279
7.10653e-05
6.10696e-05
5.87717e-05
6.59195e-05
7.99444e-05
9.77151e-05
0.000116885
0.000136063
0.000154458
0.000171626
0.000187339
0.000201517
0.000214181
0.000225417
0.000235357
0.000244148
0.000251947
0.000258902
0.000265151
0.000270819
0.000276011
0.00028082
0.00028532
0.000289575
0.000293639
0.000297553
0.000301353
0.000305068
0.00030872
0.000312326
0.000315901
0.000319454
0.00032299
0.000326511
0.000330017
0.000333501
0.000336955
0.000340368
0.000343725
0.000347006
0.000350189
0.000353248
0.000356153
0.000358872
0.000361368
0.000363599
0.000365518
0.00036707
0.00036819
0.000368799
7.57207e-05
6.42959e-05
6.20383e-05
7.17479e-05
9.12224e-05
0.000116885
0.00014539
0.000174436
0.000202626
0.00022915
0.00025356
0.000275652
0.000295385
0.000312834
0.000328151
0.000341535
0.000353208
0.000363399
0.00037233
0.000380205
0.000387208
0.000393502
0.000399224
0.000404495
0.000409412
0.00041406
0.000418505
0.000422806
0.000427008
0.000431147
0.000435252
0.000439344
0.000443439
0.000447544
0.000451662
0.00045579
0.000459917
0.000464031
0.000468111
0.000472132
0.000476064
0.000479871
0.000483511
0.000486938
0.0004901
0.00049294
0.000495392
0.000497381
0.00049882
0.000499604
8.03452e-05
6.7781e-05
6.57264e-05
7.78998e-05
0.000102545
0.000136063
0.000174436
0.000214456
0.00025399
0.000291733
0.000326924
0.000359144
0.000388207
0.000414093
0.000436899
0.000456809
0.000474064
0.000488939
0.000501726
0.000512712
0.000522173
0.000530365
0.000537519
0.000543836
0.000549495
0.000554646
0.000559419
0.000563923
0.000568246
0.000572462
0.000576631
0.000580799
0.000584998
0.000589253
0.000593576
0.000597969
0.000602427
0.000606932
0.000611463
0.000615988
0.000620469
0.000624855
0.000629093
0.000633119
0.000636863
0.000640248
0.000643187
0.000645582
0.00064732
0.000648269
8.47846e-05
7.12719e-05
6.95211e-05
8.40427e-05
0.000113479
0.000154458
0.000202626
0.00025399
0.000305623
0.000355653
0.000402956
0.000446876
0.000487057
0.000523333
0.000555687
0.000584211
0.000609085
0.000630554
0.000648911
0.000664482
0.000677604
0.000688616
0.000697842
0.000705591
0.000712141
0.000717745
0.000722626
0.000726976
0.000730962
0.000734724
0.000738377
0.000742014
0.000745706
0.000749509
0.000753456
0.000757568
0.000761846
0.000766277
0.00077084
0.0007755
0.000780206
0.000784896
0.0007895
0.000793933
0.000798105
0.000801914
0.000805248
0.000807983
0.000809976
0.000811068
8.89668e-05
7.46314e-05
7.32289e-05
8.99528e-05
0.000123759
0.000171626
0.00022915
0.000291733
0.000355653
0.0004184
0.000478449
0.000534908
0.000587262
0.000635224
0.000678657
0.000717534
0.000751919
0.000781959
0.000807868
0.000829922
0.000848445
0.000863795
0.00087635
0.000886497
0.000894614
0.000901064
0.000906188
0.000910295
0.000913664
0.000916537
0.000919123
0.000921598
0.000924103
0.000926749
0.000929617
0.000932762
0.000936208
0.000939958
0.000943998
0.000948292
0.000952782
0.000957393
0.000962035
0.000966603
0.000970979
0.000975034
0.000978626
0.000981599
0.000983781
0.000984982
9.28661e-05
7.77935e-05
7.67438e-05
9.55002e-05
0.000133242
0.000187339
0.00025356
0.000326924
0.000402956
0.000478449
0.00055142
0.000620723
0.000685705
0.000745987
0.000801348
0.000851673
0.000896918
0.000937109
0.000972339
0.00100277
0.00102863
0.0010502
0.00106785
0.00108195
0.00109293
0.00110124
0.00110731
0.00111159
0.00111447
0.00111633
0.00111753
0.00111835
0.00111905
0.00111984
0.00112088
0.0011223
0.00112416
0.00112651
0.00112934
0.00113265
0.00113637
0.00114041
0.00114467
0.00114901
0.0011533
0.00115736
0.00116102
0.0011641
0.00116638
0.00116764
9.64818e-05
8.07334e-05
8.00173e-05
0.000100625
0.000141874
0.000201517
0.000275652
0.000359144
0.000446876
0.000534908
0.000620723
0.000702882
0.000780586
0.000853386
0.000921013
0.000983299
0.00104013
0.00109145
0.00113724
0.00117753
0.00121241
0.00124204
0.00126667
0.0012866
0.00130222
0.00131395
0.00132229
0.00132775
0.00133084
0.0013321
0.001332
0.00133101
0.00132953
0.00132792
0.00132646
0.0013254
0.00132488
0.00132503
0.0013259
0.00132749
0.00132977
0.00133265
0.001336
0.00133968
0.0013435
0.00134727
0.00135077
0.00135377
0.00135603
0.0013573
9.98266e-05
8.34496e-05
8.30362e-05
0.000105315
0.000149665
0.000214181
0.000295385
0.000388207
0.000487057
0.000587262
0.000685705
0.000780586
0.000870937
0.000956236
0.00103619
0.00111059
0.00117931
0.00124223
0.00129926
0.00135033
0.00139542
0.00143455
0.00146781
0.00149536
0.00151748
0.00153449
0.00154684
0.00155503
0.00155964
0.00156127
0.00156054
0.00155806
0.00155443
0.00155018
0.00154577
0.0015416
0.00153798
0.00153514
0.00153322
0.0015323
0.00153238
0.00153339
0.00153522
0.00153768
0.00154059
0.00154369
0.00154674
0.00154945
0.00155154
0.00155273
0.000102919
8.59534e-05
8.58087e-05
0.000109589
0.000156665
0.000225417
0.000312834
0.000414093
0.000523333
0.000635224
0.000745987
0.000853386
0.000956236
0.00105393
0.00114614
0.00123266
0.00131333
0.00138803
0.00145661
0.00151896
0.00157495
0.00162451
0.00166759
0.00170421
0.00173445
0.00175853
0.00177674
0.00178949
0.0017973
0.00180079
0.00180064
0.00179757
0.00179233
0.00178564
0.00177819
0.00177056
0.00176327
0.00175672
0.00175122
0.00174695
0.00174401
0.00174237
0.00174195
0.00174258
0.00174402
0.001746
0.00174823
0.00175037
0.00175211
0.00175313
0.000105782
8.82624e-05
8.8354e-05
0.000113481
0.00016295
0.000235357
0.000328151
0.000436899
0.000555687
0.000678657
0.000801348
0.000921013
0.00103619
0.00114614
0.00125051
0.00134908
0.00144169
0.0015282
0.00160846
0.0016823
0.00174958
0.00181011
0.00186377
0.00191043
0.00195005
0.00198265
0.00200838
0.00202747
0.00204031
0.00204743
0.00204947
0.00204718
0.0020414
0.002033
0.00202286
0.0020118
0.00200057
0.00198981
0.00198003
0.00197162
0.0019648
0.00195967
0.00195619
0.00195424
0.00195356
0.00195388
0.00195485
0.0019561
0.00195726
0.00195799
0.000108438
9.03967e-05
9.06968e-05
0.000117036
0.000168606
0.000244148
0.000341535
0.000456809
0.000584211
0.000717534
0.000851673
0.000983299
0.00111059
0.00123266
0.00134908
0.00145962
0.00156413
0.00166245
0.00175443
0.00183989
0.00191863
0.00199044
0.00205512
0.00211247
0.0021623
0.0022045
0.00223905
0.002266
0.00228556
0.0022981
0.00230411
0.00230429
0.00229946
0.00229055
0.00227857
0.00226456
0.00224951
0.00223433
0.0022198
0.00220656
0.00219506
0.00218556
0.00217816
0.00217279
0.00216926
0.00216727
0.00216646
0.00216641
0.00216671
0.002167
0.000110908
9.23766e-05
9.28633e-05
0.0001203
0.000173721
0.000251947
0.000353208
0.000474064
0.000609085
0.000751919
0.000896918
0.00104013
0.00117931
0.00131333
0.00144169
0.00156413
0.00168048
0.00179061
0.00189433
0.00199146
0.00208179
0.00216507
0.00224105
0.00230947
0.00237007
0.00242262
0.00246694
0.00250293
0.00253062
0.00255016
0.00256187
0.00256628
0.0025641
0.00255623
0.00254371
0.0025277
0.0025094
0.00248999
0.00247054
0.002452
0.00243512
0.00242043
0.0024082
0.00239853
0.00239131
0.00238627
0.00238305
0.00238121
0.00238032
0.00237999
0.000113212
9.42213e-05
9.48785e-05
0.000123317
0.00017838
0.000258902
0.000363399
0.000488939
0.000630554
0.000781959
0.000937109
0.00109145
0.00124223
0.00138803
0.0015282
0.00166245
0.00179061
0.00191251
0.00202799
0.00213686
0.00223886
0.00233375
0.00242124
0.002501
0.00257274
0.00263614
0.00269091
0.00273681
0.0027737
0.00280154
0.00282046
0.00283076
0.00283297
0.00282784
0.00281635
0.00279968
0.00277914
0.00275611
0.00273197
0.00270798
0.00268525
0.00266464
0.00264674
0.00263185
0.00262002
0.0026111
0.00260475
0.00260056
0.00259806
0.0025969
0.000115369
9.59484e-05
9.67654e-05
0.000126126
0.000182659
0.000265151
0.00037233
0.000501726
0.000648911
0.000807868
0.000972339
0.00113724
0.00129926
0.00145661
0.00160846
0.00175443
0.00189433
0.00202799
0.00215525
0.00227589
0.00238967
0.00249629
0.00259543
0.00268677
0.00276993
0.00284454
0.00291024
0.00296668
0.00301359
0.00305075
0.00307809
0.0030957
0.00310389
0.0031032
0.00309445
0.0030787
0.00305727
0.00303166
0.00300346
0.00297424
0.0029455
0.00291847
0.00289414
0.00287313
0.00285575
0.00284204
0.00283176
0.00282454
0.00281998
0.00281773
0.000117396
9.75731e-05
9.85443e-05
0.000128764
0.000186624
0.000270819
0.000380205
0.000512712
0.000664482
0.000829922
0.00100277
0.00117753
0.00135033
0.00151896
0.0016823
0.00183989
0.00199146
0.00213686
0.00227589
0.00240835
0.00253397
0.00265243
0.00276339
0.00286648
0.0029613
0.00304743
0.00312443
0.00319189
0.00324941
0.00329666
0.00333339
0.00335949
0.00337503
0.00338033
0.00337595
0.0033628
0.00334206
0.00331523
0.00328399
0.00325018
0.00321561
0.00318196
0.00315064
0.00312273
0.00309889
0.00307943
0.00306433
0.00305335
0.00304617
0.00304254
0.000119305
9.91088e-05
0.000100232
0.00013126
0.000190332
0.000276011
0.000387208
0.000522173
0.000677604
0.000848445
0.00102863
0.00121241
0.00139542
0.00157495
0.00174958
0.00191863
0.00208179
0.00223886
0.00238967
0.00253397
0.00267148
0.00280189
0.00292481
0.00303984
0.00314653
0.00324443
0.00333305
0.00341191
0.00348053
0.00353846
0.00358533
0.00362084
0.00364486
0.00365746
0.00365897
0.00365004
0.00363164
0.00360514
0.00357221
0.00353481
0.003495
0.00345487
0.00341631
0.00338087
0.00334973
0.00332358
0.00330274
0.00328719
0.00327678
0.00327143
0.00012111
0.000100567
0.000101844
0.000133639
0.000193833
0.00028082
0.000393502
0.000530365
0.000688616
0.000863795
0.0010502
0.00124204
0.00143455
0.00162451
0.00181011
0.00199044
0.00216507
0.00233375
0.00249629
0.00265243
0.00280189
0.00294432
0.00307932
0.00320644
0.00332521
0.00343513
0.00353565
0.00362624
0.00370636
0.00377546
0.00383306
0.00387872
0.00391213
0.00393314
0.00394184
0.00393859
0.00392412
0.00389958
0.00386649
0.00382679
0.00378271
0.00373663
0.00369089
0.0036476
0.00360848
0.00357479
0.00354728
0.0035263
0.00351201
0.00350456
0.00012282
0.000101956
0.000103392
0.000135924
0.000197165
0.00028532
0.000399224
0.000537519
0.000697842
0.00087635
0.00106785
0.00126667
0.00146781
0.00166759
0.00186377
0.00205512
0.00224105
0.00242124
0.00259543
0.00276339
0.00292481
0.00307932
0.00322649
0.00336585
0.00349688
0.00361903
0.00373173
0.00383436
0.00392632
0.00400701
0.00407583
0.00413224
0.00417578
0.00420611
0.00422307
0.00422679
0.00421771
0.00419669
0.00416504
0.00412455
0.00407745
0.00402631
0.00397384
0.00392268
0.00387517
0.00383322
0.00379818
0.00377094
0.00375206
0.00374212
0.000124445
0.000103286
0.000104886
0.000138131
0.000200363
0.000289575
0.000404495
0.000543836
0.000705591
0.000886497
0.00108195
0.0012866
0.00149536
0.00170421
0.00191043
0.00211247
0.00230947
0.002501
0.00268677
0.00286648
0.00303984
0.00320644
0.00336585
0.00351756
0.00366101
0.00379559
0.00392069
0.00403565
0.00413979
0.00423244
0.00431292
0.0043806
0.00443487
0.00447525
0.00450139
0.00451316
0.00451074
0.00449468
0.00446602
0.00442631
0.00437766
0.00432266
0.00426428
0.00420561
0.00414962
0.00409892
0.00405564
0.00402133
0.0039972
0.00398436
0.000125992
0.000104562
0.000106333
0.000140274
0.000203452
0.000293639
0.000409412
0.000549495
0.000712141
0.000894614
0.00109293
0.00130222
0.00151748
0.00173445
0.00195005
0.0021623
0.00237007
0.00257274
0.00276993
0.0029613
0.00314653
0.00332521
0.00349688
0.00366101
0.00381699
0.00396418
0.0041019
0.00422944
0.00434606
0.00445101
0.00454355
0.00462294
0.00468848
0.00473954
0.00477561
0.00479635
0.00480168
0.00479187
0.00476764
0.00473026
0.0046816
0.00462416
0.00456101
0.00449556
0.00443135
0.00437175
0.00431972
0.0042777
0.00424769
0.00423156
0.000127467
0.000105789
0.000107742
0.000142364
0.000206455
0.000297553
0.00041406
0.000554646
0.000717745
0.000901064
0.00110124
0.00131395
0.00153449
0.00175853
0.00198265
0.0022045
0.00242262
0.00263614
0.00284454
0.00304743
0.00324443
0.00343513
0.00361903
0.00379559
0.00396418
0.0041241
0.00427462
0.00441496
0.00454434
0.00466192
0.00476688
0.00485839
0.00493568
0.00499797
0.00504462
0.0050751
0.00508912
0.00508666
0.00506817
0.00503457
0.00498746
0.00492912
0.00486258
0.00479142
0.00471965
0.00465134
0.00459037
0.00454019
0.00450381
0.00448405
0.000128876
0.000106973
0.000109116
0.000144412
0.00020939
0.000301353
0.000418505
0.000559419
0.000722626
0.000906188
0.00110731
0.00132229
0.00154684
0.00177674
0.00200838
0.00223905
0.00246694
0.00269091
0.00291024
0.00312443
0.00333305
0.00353565
0.00373173
0.00392069
0.0041019
0.00427462
0.00443806
0.0045914
0.00473376
0.00486425
0.00498197
0.005086
0.00517546
0.00524949
0.00530729
0.00534819
0.0053717
0.00537758
0.00536596
0.00533748
0.0052934
0.00523574
0.00516733
0.00509183
0.00501352
0.00493711
0.00486738
0.00480888
0.00476582
0.00474221
0.000130223
0.000108117
0.000110461
0.000146423
0.000212272
0.000305068
0.000422806
0.000563923
0.000726976
0.000910295
0.00111159
0.00132775
0.00155503
0.00178949
0.00202747
0.002266
0.00250293
0.00273681
0.00296668
0.00319189
0.00341191
0.00362624
0.00383436
0.00403565
0.00422944
0.00441496
0.0045914
0.00475785
0.00491339
0.00505704
0.00518781
0.00530472
0.00540676
0.00549298
0.00556246
0.0056144
0.00564811
0.00566317
0.00565944
0.00563728
0.00559763
0.00554218
0.00547354
0.00539525
0.00531176
0.00522826
0.00515037
0.00508377
0.00503401
0.00500644
0.000131511
0.000109224
0.000111779
0.000148405
0.00021511
0.00030872
0.000427008
0.000568246
0.000730962
0.000913664
0.00111447
0.00133084
0.00155964
0.0017973
0.00204031
0.00228556
0.00253062
0.0027737
0.00301359
0.00324941
0.00348053
0.00370636
0.00392632
0.00413979
0.00434606
0.00454434
0.00473376
0.00491339
0.00508222
0.00523922
0.0053833
0.00551339
0.00562839
0.00572723
0.00580889
0.00587242
0.005917
0.005942
0.00594709
0.00593235
0.00589841
0.00584667
0.00577943
0.00570006
0.00561302
0.00552384
0.00543883
0.00536479
0.00530865
0.00527722
0.000132745
0.000110296
0.000113073
0.00015036
0.000217914
0.000312326
0.000431147
0.000572462
0.000734724
0.000916537
0.00111633
0.0013321
0.00156127
0.00180079
0.00204743
0.0022981
0.00255016
0.00280154
0.00305075
0.00329666
0.00353846
0.00377546
0.00400701
0.00423244
0.00445101
0.00466192
0.00486425
0.00505704
0.00523922
0.00540968
0.00556727
0.0057108
0.00583909
0.00595095
0.00604525
0.00612091
0.00617696
0.00621263
0.00622738
0.00622107
0.00619406
0.00614746
0.00608327
0.00600462
0.0059159
0.00582281
0.00573222
0.00565189
0.0055901
0.00555516
0.000133925
0.000111335
0.000114345
0.000152292
0.00022069
0.000315901
0.000435252
0.000576631
0.000738377
0.000919123
0.00111753
0.001332
0.00156054
0.00180064
0.00204947
0.00230411
0.00256187
0.00282046
0.00307809
0.00333339
0.00358533
0.00383306
0.00407583
0.00431292
0.00454355
0.00476688
0.00498197
0.00518781
0.0053833
0.00556727
0.00573847
0.00589565
0.00603749
0.00616273
0.0062701
0.00635839
0.00642652
0.00647355
0.00649878
0.00650186
0.00648296
0.00644289
0.00638341
0.00630738
0.00621906
0.00612419
0.00603002
0.00594511
0.0058789
0.0058411
0.000135056
0.000112342
0.000115596
0.000154202
0.000223441
0.000319454
0.000439344
0.000580799
0.000742014
0.000921598
0.00111835
0.00133101
0.00155806
0.00179757
0.00204718
0.00230429
0.00256628
0.00283076
0.0030957
0.00335949
0.00362084
0.00387872
0.00413224
0.0043806
0.00462294
0.00485839
0.005086
0.00530472
0.00551339
0.0057108
0.00589565
0.00606657
0.00622218
0.00636109
0.00648191
0.00658332
0.0066641
0.00672318
0.00675969
0.00677315
0.00676351
0.0067314
0.00667832
0.00660695
0.00652133
0.00642721
0.00633202
0.00624484
0.00617602
0.00613639
0.000136137
0.000113318
0.000116825
0.000156092
0.00022617
0.00032299
0.000443439
0.000584998
0.000745706
0.000924103
0.00111905
0.00132953
0.00155443
0.00179233
0.0020414
0.00229946
0.0025641
0.00283297
0.00310389
0.00337503
0.00364486
0.00391213
0.00417578
0.00443487
0.00468848
0.00493568
0.00517546
0.00540676
0.00562839
0.00583909
0.00603749
0.00622218
0.00639167
0.00654447
0.00667908
0.00679406
0.00688805
0.00695985
0.0070085
0.00703333
0.00703417
0.00701151
0.00696668
0.00690218
0.00682192
0.00673153
0.00663851
0.00655215
0.00648326
0.00644329
0.00013717
0.000114264
0.000118033
0.000157958
0.000228877
0.000326511
0.000447544
0.000589253
0.000749509
0.000926749
0.00111984
0.00132792
0.00155018
0.00178564
0.002033
0.00229055
0.00255623
0.00282784
0.0031032
0.00338033
0.00365746
0.00393314
0.00420611
0.00447525
0.00473954
0.00499797
0.00524949
0.00549298
0.00572723
0.00595095
0.00616273
0.00636109
0.00654447
0.00671129
0.00685994
0.00698888
0.00709663
0.00718186
0.0072435
0.0072808
0.00729347
0.00728192
0.00724741
0.00719236
0.00712058
0.00703762
0.00695083
0.0068694
0.00680395
0.00676576
0.000138156
0.000115179
0.000119218
0.000159801
0.000231557
0.000330017
0.000451662
0.000593576
0.000753456
0.000929617
0.00112088
0.00132646
0.00154577
0.00177819
0.00202286
0.00227857
0.00254371
0.00281635
0.00309445
0.00337595
0.00365897
0.00394184
0.00422307
0.00450139
0.00477561
0.00504462
0.00530729
0.00556246
0.00580889
0.00604525
0.0062701
0.00648191
0.00667908
0.00685994
0.00702282
0.00716605
0.00728807
0.00738745
0.00746303
0.00751399
0.00754003
0.00754155
0.00751984
0.00747738
0.00741802
0.00734721
0.00727207
0.00720117
0.00714409
0.00711073
0.000139095
0.000116063
0.000120378
0.000161616
0.000234208
0.000333501
0.00045579
0.000597969
0.000757568
0.000932762
0.0011223
0.0013254
0.0015416
0.00177056
0.0020118
0.00226456
0.0025277
0.00279968
0.0030787
0.0033628
0.00365004
0.00393859
0.00422679
0.00451316
0.00479635
0.0050751
0.00534819
0.0056144
0.00587242
0.00612091
0.00635839
0.00658332
0.00679406
0.00698888
0.00716605
0.00732384
0.00746061
0.00757488
0.00766543
0.00773145
0.00777269
0.00778968
0.00778392
0.00775812
0.00771637
0.00766416
0.00760817
0.00755574
0.00751417
0.00749012
0.000139987
0.000116914
0.000121511
0.000163398
0.000236822
0.000336955
0.000459917
0.000602427
0.000761846
0.000936208
0.00112416
0.00132488
0.00153798
0.00176327
0.00200057
0.00224951
0.0025094
0.00277914
0.00305727
0.00334206
0.00363164
0.00392412
0.00421771
0.00451074
0.00480168
0.00508912
0.0053717
0.00564811
0.005917
0.00617696
0.00642652
0.0066641
0.00688805
0.00709663
0.00728807
0.00746061
0.00761259
0.00774251
0.0078492
0.00793193
0.00799066
0.00802621
0.00804055
0.00803697
0.0080201
0.00799562
0.00796963
0.00794735
0.00793189
0.00792388
0.000140833
0.000117733
0.000122614
0.000165143
0.00023939
0.000340368
0.000464031
0.000606932
0.000766277
0.000939958
0.00112651
0.00132503
0.00153514
0.00175672
0.00198981
0.00223433
0.00248999
0.00275611
0.00303166
0.00331523
0.00360514
0.00389958
0.00419669
0.00449468
0.00479187
0.00508666
0.00537758
0.00566317
0.005942
0.00621263
0.00647355
0.00672318
0.00695985
0.00718186
0.00738745
0.00757488
0.00774251
0.00788895
0.00801314
0.00811463
0.00819377
0.00825203
0.00829223
0.00831872
0.00833719
0.00835388
0.00837403
0.00839943
0.00842609
0.0084443
0.000141632
0.000118516
0.000123683
0.000166843
0.000241903
0.000343725
0.000468111
0.000611463
0.00077084
0.000943998
0.00112934
0.0013259
0.00153322
0.00175122
0.00198003
0.0022198
0.00247054
0.00273197
0.00300346
0.00328399
0.00357221
0.00386649
0.00416504
0.00446602
0.00476764
0.00506817
0.00536596
0.00565944
0.00594709
0.00622738
0.00649878
0.00675969
0.0070085
0.0072435
0.00746303
0.00766543
0.0078492
0.00801314
0.00815653
0.00827941
0.0083829
0.00846957
0.00854379
0.00861176
0.00868105
0.00875896
0.00884949
0.00894893
0.00904184
0.0091016
0.000142383
0.000119261
0.000124713
0.00016849
0.000244346
0.000347006
0.000472132
0.000615988
0.0007755
0.000948292
0.00113265
0.00132749
0.0015323
0.00174695
0.00197162
0.00220656
0.002452
0.00270798
0.00297424
0.00325018
0.00353481
0.00382679
0.00412455
0.00442631
0.00473026
0.00503457
0.00533748
0.00563728
0.00593235
0.00622107
0.00650186
0.00677315
0.00703333
0.0072808
0.00751399
0.00773145
0.00793193
0.00811463
0.00827941
0.0084272
0.00856045
0.00868363
0.00880366
0.00892985
0.00907287
0.00924186
0.00943889
0.00965156
0.00984636
0.00997021
0.000143084
0.000119967
0.000125699
0.000170073
0.000246704
0.000350189
0.000476064
0.000620469
0.000780206
0.000952782
0.00113637
0.00132977
0.00153238
0.00174401
0.0019648
0.00219506
0.00243512
0.00268525
0.0029455
0.00321561
0.003495
0.00378271
0.00407745
0.00437766
0.0046816
0.00498746
0.0052934
0.00559763
0.00589841
0.00619406
0.00648296
0.00676351
0.00703417
0.00729347
0.00754003
0.00777269
0.00799066
0.00819377
0.0083829
0.00856045
0.00873105
0.00890229
0.00908521
0.00929409
0.00954449
0.00984827
0.0102044
0.0105868
0.0109342
0.011154
0.000143735
0.00012063
0.000126635
0.000171583
0.00024896
0.000353248
0.000479871
0.000624855
0.000784896
0.000957393
0.00114041
0.00133265
0.00153339
0.00174237
0.00195967
0.00218556
0.00242043
0.00266464
0.00291847
0.00318196
0.00345487
0.00373663
0.00402631
0.00432266
0.00462416
0.00492912
0.00523574
0.00554218
0.00584667
0.00614746
0.00644289
0.0067314
0.00701151
0.00728192
0.00754155
0.00778968
0.00802621
0.00825203
0.00846957
0.00868363
0.00890229
0.00913802
0.00940828
0.00973494
0.0101408
0.0106413
0.0112301
0.0118598
0.0124285
0.0127864
0.000144333
0.000121246
0.000127513
0.000173005
0.000251093
0.000356153
0.000483511
0.000629093
0.0007895
0.000962035
0.00114467
0.001336
0.00153522
0.00174195
0.00195619
0.00217816
0.0024082
0.00264674
0.00289414
0.00315064
0.00341631
0.00369089
0.00397384
0.00426428
0.00456101
0.00486258
0.00516733
0.00547354
0.00577943
0.00608327
0.00638341
0.00667832
0.00696668
0.00724741
0.00751984
0.00778392
0.00804055
0.00829223
0.00854379
0.00880366
0.00908521
0.00940828
0.00979989
0.0102929
0.01092
0.0117009
0.0126192
0.0135963
0.0144723
0.0150206
0.000144877
0.000121811
0.000128326
0.000174327
0.00025308
0.000358872
0.000486938
0.000633119
0.000793933
0.000966603
0.00114901
0.00133968
0.00153768
0.00174258
0.00195424
0.00217279
0.00239853
0.00263185
0.00287313
0.00312273
0.00338087
0.0036476
0.00392268
0.00420561
0.00449556
0.00479142
0.00509183
0.00539525
0.00570006
0.00600462
0.00630738
0.00660695
0.00690218
0.00719236
0.00747738
0.00775812
0.00803697
0.00831872
0.00861176
0.00892985
0.00929409
0.00973494
0.0102929
0.0110157
0.0119487
0.0131144
0.0144803
0.0159224
0.017205
0.0180031
0.000145363
0.000122322
0.000129066
0.000175533
0.000254898
0.000361368
0.0004901
0.000636863
0.000798105
0.000970979
0.0011533
0.0013435
0.00154059
0.00174402
0.00195356
0.00216926
0.00239131
0.00262002
0.00285575
0.00309889
0.00334973
0.00360848
0.00387517
0.00414962
0.00443135
0.00471965
0.00501352
0.00531176
0.00561302
0.0059159
0.00621906
0.00652133
0.00682192
0.00712058
0.00741802
0.00771637
0.0080201
0.00833719
0.00868105
0.00907287
0.00954449
0.0101408
0.01092
0.0119487
0.013286
0.0149542
0.0168954
0.0189278
0.0207231
0.0218367
0.000145789
0.000122772
0.000129721
0.000176606
0.000256519
0.000363599
0.00049294
0.000640248
0.000801914
0.000975034
0.00115736
0.00134727
0.00154369
0.001746
0.00195388
0.00216727
0.00238627
0.0026111
0.00284204
0.00307943
0.00332358
0.00357479
0.00383322
0.00409892
0.00437175
0.00465134
0.00493711
0.00522826
0.00552384
0.00582281
0.00612419
0.00642721
0.00673153
0.00703762
0.00734721
0.00766416
0.00799562
0.00835388
0.00875896
0.00924186
0.00984827
0.0106413
0.0117009
0.0131144
0.0149542
0.0172371
0.0198732
0.0226168
0.0250393
0.0265484
0.000146148
0.000123154
0.000130282
0.000177524
0.000257909
0.000365518
0.000495392
0.000643187
0.000805248
0.000978626
0.00116102
0.00135077
0.00154674
0.00174823
0.00195485
0.00216646
0.00238305
0.00260475
0.00283176
0.00306433
0.00330274
0.00354728
0.00379818
0.00405564
0.00431972
0.00459037
0.00486738
0.00515037
0.00543883
0.00573222
0.00603002
0.00633202
0.00663851
0.00695083
0.00727207
0.00760817
0.00796963
0.00837403
0.00884949
0.00943889
0.0102044
0.0112301
0.0126192
0.0144803
0.0168954
0.0198732
0.0232945
0.0268627
0.0300544
0.0320835
0.000146434
0.00012346
0.000130732
0.000178264
0.000259031
0.00036707
0.000497381
0.000645582
0.000807983
0.000981599
0.0011641
0.00135377
0.00154945
0.00175037
0.0019561
0.00216641
0.00238121
0.00260056
0.00282454
0.00305335
0.00328719
0.0035263
0.00377094
0.00402133
0.0042777
0.00454019
0.00480888
0.00508377
0.00536479
0.00565189
0.00594511
0.00624484
0.00655215
0.0068694
0.00720117
0.00755574
0.00794735
0.00839943
0.00894893
0.00965156
0.0105868
0.0118598
0.0135963
0.0159224
0.0189278
0.0226168
0.0268627
0.0313596
0.035528
0.0383225
0.000146639
0.00012368
0.000131056
0.000178797
0.000259839
0.00036819
0.00049882
0.00064732
0.000809976
0.000983781
0.00116638
0.00135603
0.00155154
0.00175211
0.00195726
0.00216671
0.00238032
0.00259806
0.00281998
0.00304617
0.00327678
0.00351201
0.00375206
0.0039972
0.00424769
0.00450381
0.00476582
0.00503401
0.00530865
0.0055901
0.0058789
0.00617602
0.00648326
0.00680395
0.00714409
0.00751417
0.00793189
0.00842609
0.00904184
0.00984636
0.0109342
0.0124285
0.0144723
0.017205
0.0207231
0.0250393
0.0300544
0.035528
0.0409538
0.0450622
0.000146749
0.000123799
0.000131232
0.000179087
0.000260279
0.000368799
0.000499604
0.000648269
0.000811068
0.000984982
0.00116764
0.0013573
0.00155273
0.00175313
0.00195799
0.002167
0.00237999
0.0025969
0.00281773
0.00304254
0.00327143
0.00350456
0.00374212
0.00398436
0.00423156
0.00448405
0.00474221
0.00500644
0.00527722
0.00555516
0.0058411
0.00613639
0.00644329
0.00676576
0.00711073
0.00749012
0.00792388
0.0084443
0.0091016
0.00997021
0.011154
0.0127864
0.0150206
0.0180031
0.0218367
0.0265484
0.0320835
0.0383225
0.0450622
0.0516218
)
;

boundaryField
{
    bottomWall
    {
        type            nutkWallFunction;
        Cmu             0.09;
        kappa           0.41;
        E               9.8;
        value           uniform 0;
    }
    leftWall
    {
        type            nutkWallFunction;
        Cmu             0.09;
        kappa           0.41;
        E               9.8;
        value           uniform 0;
    }
    topSym
    {
        type            symmetryPlane;
    }
    rightSym
    {
        type            symmetryPlane;
    }
    inlet
    {
        type            cyclic;
    }
    outlet
    {
        type            cyclic;
    }
}


// ************************************************************************* //
