/*--------------------------------*- C++ -*----------------------------------*\
| =========                 |                                                 |
| \\      /  F ield         | OpenFOAM: The Open Source CFD Toolbox           |
|  \\    /   O peration     | Version:  v1912                                 |
|   \\  /    A nd           | Website:  www.openfoam.com                      |
|    \\/     M anipulation  |                                                 |
\*---------------------------------------------------------------------------*/
FoamFile
{
    version     2.0;
    format      ascii;
    class       volScalarField;
    location    "4000";
    object      p;
}
// * * * * * * * * * * * * * * * * * * * * * * * * * * * * * * * * * * * * * //

dimensions      [0 2 -2 0 0 0 0];


internalField   nonuniform List<scalar> 
2500
(
-7.72001e-14
7.23825e-08
2.70176e-07
6.05947e-07
1.14407e-06
2.00986e-06
3.35769e-06
5.32432e-06
7.9839e-06
1.13303e-05
1.5285e-05
1.972e-05
2.44832e-05
2.94218e-05
3.43971e-05
3.92932e-05
4.40185e-05
4.8504e-05
5.26995e-05
5.65687e-05
6.00839e-05
6.32219e-05
6.59605e-05
6.82749e-05
7.01365e-05
7.15111e-05
7.23585e-05
7.26327e-05
7.22823e-05
7.1252e-05
6.94841e-05
6.69212e-05
6.35084e-05
5.91979e-05
5.3952e-05
4.7749e-05
4.05883e-05
3.24966e-05
2.35308e-05
1.37837e-05
3.39793e-06
-7.43957e-06
-1.84828e-05
-2.94484e-05
-3.99893e-05
-4.97585e-05
-5.83403e-05
-6.53964e-05
-7.0474e-05
-7.32609e-05
7.23825e-08
9.91651e-08
2.70622e-07
5.73539e-07
1.05086e-06
1.81891e-06
3.02752e-06
4.81068e-06
7.24486e-06
1.03345e-05
1.40173e-05
1.81814e-05
2.26873e-05
2.7389e-05
3.21497e-05
3.6852e-05
4.14007e-05
4.57233e-05
4.97663e-05
5.34908e-05
5.68675e-05
5.98727e-05
6.24839e-05
6.46768e-05
6.64234e-05
6.76905e-05
6.84387e-05
6.86229e-05
6.81927e-05
6.70933e-05
6.52678e-05
6.26591e-05
5.92129e-05
5.48814e-05
4.96269e-05
4.34276e-05
3.62822e-05
2.82169e-05
1.92877e-05
9.58616e-06
-7.46867e-07
-1.15262e-05
-2.25079e-05
-3.34111e-05
-4.38913e-05
-5.36039e-05
-6.21358e-05
-6.91506e-05
-7.41975e-05
-7.69947e-05
2.70176e-07
2.70622e-07
5.04891e-07
9.42123e-07
1.62356e-06
2.67887e-06
4.28461e-06
6.60418e-06
9.73413e-06
1.36915e-05
1.84225e-05
2.38184e-05
2.97373e-05
3.6025e-05
4.25324e-05
4.91268e-05
5.56978e-05
6.21581e-05
6.84415e-05
7.44982e-05
8.02902e-05
8.57864e-05
9.09583e-05
9.57763e-05
0.000100208
0.000104214
0.000107752
0.000110771
0.000113215
0.000115022
0.000116131
0.000116475
0.000115992
0.000114625
0.000112326
0.00010906
0.000104815
9.96016e-05
9.34607e-05
8.64666e-05
7.87419e-05
7.04517e-05
6.18178e-05
5.30977e-05
4.46096e-05
3.66688e-05
2.96549e-05
2.38645e-05
1.96998e-05
1.73681e-05
6.05947e-07
5.73539e-07
9.42123e-07
1.73918e-06
3.11276e-06
5.28725e-06
8.5016e-06
1.2964e-05
1.87897e-05
2.59887e-05
3.448e-05
4.41165e-05
5.47118e-05
6.60657e-05
7.79829e-05
9.02865e-05
0.000102825
0.000115473
0.000128133
0.000140725
0.000153187
0.000165467
0.000177517
0.000189291
0.000200743
0.000211819
0.000222462
0.000232609
0.000242189
0.000251127
0.000259346
0.000266763
0.000273299
0.000278878
0.00028343
0.000286899
0.000289247
0.000290458
0.000290544
0.000289548
0.000287558
0.000284702
0.000281162
0.000277151
0.000272939
0.000268786
0.000265005
0.000261815
0.000259519
0.000258199
1.14407e-06
1.05086e-06
1.62356e-06
3.11276e-06
6.07021e-06
1.10664e-05
1.8411e-05
2.81864e-05
4.03366e-05
5.47211e-05
7.1132e-05
8.93138e-05
0.000108988
0.000129876
0.000151712
0.000174255
0.000197291
0.000220639
0.000244147
0.000267687
0.000291152
0.000314452
0.000337507
0.000360242
0.000382583
0.000404457
0.000425788
0.000446494
0.000466488
0.000485682
0.000503981
0.000521288
0.000537507
0.000552546
0.000566316
0.000578742
0.000589761
0.000599334
0.000607445
0.000614109
0.000619381
0.000623354
0.000626169
0.000627995
0.000629053
0.000629542
0.000629707
0.000629678
0.000629646
0.000629576
2.00986e-06
1.81891e-06
2.67887e-06
5.28725e-06
1.10664e-05
2.13794e-05
3.65436e-05
5.59683e-05
7.88578e-05
0.000104588
0.000132696
0.000162798
0.000194562
0.000227685
0.00026189
0.000296917
0.000332528
0.000368501
0.000404637
0.000440756
0.0004767
0.000512328
0.000547515
0.000582145
0.000616113
0.00064932
0.000681667
0.000713059
0.000743397
0.000772585
0.000800524
0.000827115
0.00085226
0.000875864
0.00089784
0.000918109
0.000936604
0.00095328
0.000968117
0.00098112
0.000992333
0.00100183
0.00100974
0.00101621
0.00102142
0.00102554
0.00102878
0.00103119
0.0010329
0.0010338
3.35769e-06
3.02752e-06
4.28461e-06
8.5016e-06
1.8411e-05
3.65436e-05
6.29979e-05
9.56798e-05
0.000132252
0.000171238
0.000211893
0.000253837
0.000296855
0.0003408
0.00038554
0.000430934
0.000476819
0.000523013
0.000569321
0.000615542
0.000661477
0.000706937
0.000751742
0.000795728
0.000838744
0.000880652
0.000921323
0.00096064
0.000998493
0.00103478
0.0010694
0.00110226
0.00113328
0.00116237
0.00118946
0.00121449
0.00123741
0.00125818
0.00127681
0.0012933
0.00130773
0.00132016
0.00133073
0.00133958
0.00134689
0.00135284
0.00135759
0.0013612
0.00136376
0.00136511
5.32432e-06
4.81068e-06
6.60418e-06
1.2964e-05
2.81864e-05
5.59683e-05
9.56798e-05
0.00014294
0.000193324
0.000244391
0.000295284
0.000345858
0.000396228
0.000446581
0.00049709
0.000547869
0.000598955
0.000650311
0.000701833
0.000753363
0.000804708
0.000855654
0.000905977
0.000955456
0.00100388
0.00105105
0.00109678
0.00114092
0.0011833
0.00122381
0.00126232
0.00129875
0.00133299
0.00136499
0.00139468
0.00142201
0.00144697
0.00146953
0.00148973
0.00150761
0.00152323
0.00153671
0.00154818
0.0015578
0.00156577
0.00157225
0.00157743
0.00158137
0.00158415
0.00158559
7.9839e-06
7.24486e-06
9.73413e-06
1.87897e-05
4.03366e-05
7.88578e-05
0.000132252
0.000193324
0.000255535
0.000315769
0.000373363
0.000428626
0.000482123
0.000534434
0.000586068
0.000637436
0.000688833
0.000740437
0.000792316
0.00084444
0.000896694
0.000948904
0.00100085
0.00105227
0.00110292
0.00115252
0.00120081
0.00124757
0.00129256
0.00133559
0.0013765
0.00141515
0.00145141
0.00148519
0.00151644
0.00154512
0.00157119
0.00159467
0.00161561
0.00163407
0.00165014
0.00166395
0.00167566
0.00168544
0.00169351
0.00170004
0.00170523
0.00170915
0.00171191
0.00171332
1.13303e-05
1.03345e-05
1.36915e-05
2.59887e-05
5.47211e-05
0.000104588
0.000171238
0.000244391
0.000315769
0.000382107
0.000443292
0.000500237
0.000553977
0.000605431
0.00065537
0.000704422
0.000753089
0.000801753
0.000850675
0.000900002
0.000949774
0.000999934
0.00105034
0.00110079
0.00115101
0.00120072
0.0012496
0.00129734
0.00134364
0.00138819
0.00143075
0.00147109
0.00150903
0.0015444
0.00157711
0.00160708
0.00163428
0.0016587
0.00168041
0.00169947
0.00171601
0.00173016
0.0017421
0.00175202
0.00176016
0.0017667
0.00177187
0.00177575
0.00177845
0.00177983
1.5285e-05
1.40173e-05
1.84225e-05
3.448e-05
7.1132e-05
0.000132696
0.000211893
0.000295284
0.000373363
0.000443292
0.000505825
0.000562573
0.000615019
0.000664347
0.00071148
0.00075715
0.000801953
0.000846382
0.000890834
0.000935616
0.000980935
0.0010269
0.00107352
0.00112071
0.00116829
0.00121604
0.00126364
0.00131076
0.00135703
0.00140209
0.00144557
0.00148715
0.00152652
0.00156345
0.00159773
0.00162923
0.00165784
0.00168354
0.00170636
0.00172637
0.00174368
0.00175845
0.00177086
0.00178114
0.00178952
0.00179622
0.00180147
0.00180538
0.00180809
0.00180946
1.972e-05
1.81814e-05
2.38184e-05
4.41165e-05
8.93138e-05
0.000162798
0.000253837
0.000345858
0.000428626
0.000500237
0.000562573
0.000617993
0.00066839
0.000715154
0.000759296
0.000801565
0.000842551
0.000882751
0.0009226
0.00096248
0.00100271
0.00104356
0.00108518
0.00112766
0.00117099
0.00121505
0.00125964
0.00130449
0.00134924
0.00139351
0.00143687
0.0014789
0.0015192
0.0015574
0.00159319
0.00162631
0.00165657
0.00168386
0.00170815
0.00172948
0.00174794
0.00176368
0.00177688
0.00178778
0.00179664
0.00180368
0.00180917
0.00181322
0.00181601
0.00181742
2.44832e-05
2.26873e-05
2.97373e-05
5.47118e-05
0.000108988
0.000194562
0.000296855
0.000396228
0.000482123
0.000553977
0.000615019
0.00066839
0.000716344
0.00076043
0.000801706
0.000840904
0.000878561
0.00091511
0.000950937
0.00098641
0.00102188
0.00105767
0.00109408
0.00113132
0.00116955
0.00120882
0.00124909
0.00129023
0.00133198
0.00137402
0.00141595
0.00145732
0.00149765
0.00153647
0.00157334
0.00160789
0.00163979
0.0016688
0.0016948
0.00171775
0.00173768
0.00175471
0.00176902
0.00178083
0.0017904
0.00179799
0.00180387
0.00180818
0.00181113
0.00181261
2.94218e-05
2.7389e-05
3.6025e-05
6.60657e-05
0.000129876
0.000227685
0.0003408
0.000446581
0.000534434
0.000605431
0.000664347
0.000715154
0.00076043
0.000801818
0.000840392
0.000876857
0.000911688
0.000945237
0.0009778
0.00100967
0.00104115
0.00107256
0.00110422
0.00113644
0.00116949
0.00120359
0.00123885
0.00127532
0.00131291
0.00135143
0.00139059
0.00143
0.00146918
0.00150762
0.00154481
0.00158024
0.00161345
0.00164406
0.00167179
0.0016965
0.00171814
0.00173673
0.00175241
0.00176538
0.00177591
0.00178424
0.00179067
0.00179537
0.00179855
0.00180015
3.43971e-05
3.21497e-05
4.25324e-05
7.79829e-05
0.000151712
0.00026189
0.00038554
0.00049709
0.000586068
0.00065537
0.00071148
0.000759296
0.000801706
0.000840392
0.000876395
0.000910378
0.000942761
0.000973822
0.00100377
0.0010328
0.00106112
0.00108899
0.0011167
0.00114457
0.00117293
0.00120206
0.00123225
0.00126368
0.00129644
0.00133053
0.00136582
0.00140205
0.00143884
0.00147574
0.0015122
0.00154764
0.00158152
0.0016133
0.00164255
0.00166897
0.00169238
0.00171269
0.00172996
0.00174432
0.00175601
0.00176527
0.00177242
0.00177762
0.00178113
0.00178289
3.92932e-05
3.6852e-05
4.91268e-05
9.02865e-05
0.000174255
0.000296917
0.000430934
0.000547869
0.000637436
0.000704422
0.00075715
0.000801565
0.000840904
0.000876857
0.000910378
0.000942052
0.000972239
0.00100116
0.00102894
0.00105571
0.00108157
0.00110669
0.00113128
0.00115562
0.00118001
0.00120479
0.00123029
0.00125682
0.00128461
0.00131384
0.00134455
0.00137667
0.00141
0.00144418
0.00147876
0.00151317
0.00154682
0.00157907
0.00160935
0.0016372
0.00166226
0.00168431
0.00170328
0.00171919
0.00173223
0.0017426
0.00175061
0.00175645
0.00176037
0.00176234
4.40185e-05
4.14007e-05
5.56978e-05
0.000102825
0.000197291
0.000332528
0.000476819
0.000598955
0.000688833
0.000753089
0.000801953
0.000842551
0.000878561
0.000911688
0.000942761
0.000972239
0.0010004
0.00102739
0.00105331
0.0010782
0.00110209
0.00112506
0.00114724
0.00116881
0.00119003
0.00121119
0.00123265
0.00125476
0.00127785
0.00130223
0.0013281
0.00135559
0.00138467
0.00141517
0.0014468
0.00147908
0.00151145
0.00154326
0.00157384
0.00160259
0.00162899
0.00165263
0.00167327
0.00169082
0.00170534
0.00171698
0.001726
0.00173259
0.00173701
0.00173923
4.8504e-05
4.57233e-05
6.21581e-05
0.000115473
0.000220639
0.000368501
0.000523013
0.000650311
0.000740437
0.000801753
0.000846382
0.000882751
0.00091511
0.000945237
0.000973822
0.00100116
0.00102739
0.00105261
0.00107684
0.00110009
0.00112233
0.00114357
0.00116385
0.00118327
0.00120199
0.00122027
0.0012384
0.00125674
0.00127566
0.00129553
0.00131668
0.00133939
0.00136382
0.00139
0.00141781
0.00144697
0.00147702
0.00150738
0.00153736
0.00156626
0.00159346
0.00161835
0.0016405
0.00165964
0.0016757
0.00168871
0.00169886
0.00170632
0.00171133
0.00171385
5.26995e-05
4.97663e-05
6.84415e-05
0.000128133
0.000244147
0.000404637
0.000569321
0.000701833
0.000792316
0.000850675
0.000890834
0.0009226
0.000950937
0.0009778
0.00100377
0.00102894
0.00105331
0.00107684
0.0010995
0.00112125
0.00114203
0.0011618
0.00118052
0.00119823
0.001215
0.001231
0.00124647
0.00126171
0.00127708
0.00129298
0.00130979
0.00132791
0.00134763
0.00136917
0.00139262
0.00141787
0.00144468
0.00147259
0.001501
0.00152918
0.00155644
0.00158203
0.00160535
0.00162592
0.00164347
0.00165789
0.00166927
0.00167769
0.00168338
0.00168624
5.65687e-05
5.34908e-05
7.44982e-05
0.000140725
0.000267687
0.000440756
0.000615542
0.000753363
0.00084444
0.000900002
0.000935616
0.00096248
0.00098641
0.00100967
0.0010328
0.00105571
0.0010782
0.00110009
0.00112125
0.00114159
0.00116102
0.00117946
0.00119683
0.00121311
0.00122831
0.00124251
0.00125586
0.0012686
0.00128104
0.00129356
0.00130656
0.00132048
0.00133572
0.00135262
0.00137145
0.00139233
0.00141519
0.00143978
0.00146566
0.00149219
0.00151865
0.00154424
0.0015682
0.00158986
0.00160873
0.00162452
0.00163715
0.0016466
0.00165303
0.00165628
6.00839e-05
5.68675e-05
8.02902e-05
0.000153187
0.000291152
0.0004767
0.000661477
0.000804708
0.000896694
0.000949774
0.000980935
0.00100271
0.00102188
0.00104115
0.00106112
0.00108157
0.00110209
0.00112233
0.00114203
0.00116102
0.00117916
0.00119635
0.00121249
0.00122751
0.00124137
0.00125408
0.00126572
0.00127645
0.00128652
0.00129623
0.00130598
0.00131621
0.00132735
0.00133986
0.00135411
0.0013704
0.00138888
0.00140951
0.00143204
0.00145599
0.00148075
0.00150551
0.00152943
0.00155167
0.00157155
0.00158854
0.00160238
0.00161289
0.00162009
0.00162377
6.32219e-05
5.98727e-05
8.57864e-05
0.000165467
0.000314452
0.000512328
0.000706937
0.000855654
0.000948904
0.000999934
0.0010269
0.00104356
0.00105767
0.00107256
0.00108899
0.00110669
0.00112506
0.00114357
0.0011618
0.00117946
0.00119635
0.00121234
0.0012273
0.00124115
0.00125379
0.00126521
0.00127542
0.0012845
0.00129262
0.00130003
0.00130706
0.00131412
0.00132165
0.00133013
0.00134004
0.0013518
0.00136572
0.00138198
0.00140054
0.00142115
0.00144332
0.00146637
0.00148945
0.00151163
0.00153204
0.00154995
0.00156485
0.00157635
0.00158434
0.00158846
6.59605e-05
6.24839e-05
9.09583e-05
0.000177517
0.000337507
0.000547515
0.000751742
0.000905977
0.00100085
0.00105034
0.00107352
0.00108518
0.00109408
0.00110422
0.0011167
0.00113128
0.00114724
0.00116385
0.00118052
0.00119683
0.00121249
0.0012273
0.00124112
0.00125382
0.00126532
0.00127555
0.00128448
0.00129214
0.00129864
0.00130413
0.00130889
0.00131327
0.00131768
0.0013226
0.00132853
0.00133598
0.0013454
0.00135712
0.00137132
0.00138798
0.0014068
0.0014273
0.00144869
0.00147005
0.00149038
0.00150876
0.00152445
0.00153682
0.00154555
0.00155008
6.82749e-05
6.46768e-05
9.57763e-05
0.000189291
0.000360242
0.000582145
0.000795728
0.000955456
0.00105227
0.00110079
0.00112071
0.00112766
0.00113132
0.00113644
0.00114457
0.00115562
0.00116881
0.00118327
0.00119823
0.00121311
0.00122751
0.00124115
0.00125382
0.00126539
0.00127576
0.00128483
0.00129257
0.00129895
0.00130402
0.00130788
0.00131072
0.00131283
0.00131457
0.00131638
0.00131876
0.00132225
0.00132737
0.00133459
0.00134427
0.00135658
0.00137147
0.00138866
0.00140754
0.00142725
0.00144678
0.00146507
0.00148114
0.00149413
0.00150347
0.00150838
7.01365e-05
6.64234e-05
0.000100208
0.000200743
0.000382583
0.000616113
0.000838744
0.00100388
0.00110292
0.00115101
0.00116829
0.00117099
0.00116955
0.00116949
0.00117293
0.00118001
0.00119003
0.00120199
0.001215
0.00122831
0.00124137
0.00125379
0.00126532
0.00127576
0.00128499
0.00129292
0.00129948
0.00130463
0.00130838
0.00131077
0.00131194
0.00131209
0.00131153
0.00131064
0.0013099
0.00130981
0.00131095
0.00131387
0.00131904
0.00132683
0.00133739
0.00135066
0.00136628
0.00138354
0.00140148
0.00141899
0.00143492
0.00144818
0.00145791
0.00146311
7.15111e-05
6.76905e-05
0.000104214
0.000211819
0.000404457
0.00064932
0.000880652
0.00105105
0.00115252
0.00120072
0.00121604
0.00121505
0.00120882
0.00120359
0.00120206
0.00120479
0.00121119
0.00122027
0.001231
0.00124251
0.00125408
0.00126521
0.00127555
0.00128483
0.00129292
0.00129968
0.00130505
0.00130898
0.00131144
0.00131244
0.00131208
0.0013105
0.00130792
0.00130468
0.00130118
0.00129791
0.00129542
0.00129431
0.00129514
0.00129839
0.00130442
0.00131336
0.0013251
0.00133916
0.00135472
0.00137068
0.00138584
0.00139889
0.00140872
0.00141405
7.23585e-05
6.84387e-05
0.000107752
0.000222462
0.000425788
0.000681667
0.000921323
0.00109678
0.00120081
0.0012496
0.00126364
0.00125964
0.00124909
0.00123885
0.00123225
0.00123029
0.00123265
0.0012384
0.00124647
0.00125586
0.00126572
0.00127542
0.00128448
0.00129257
0.00129948
0.00130505
0.00130921
0.00131187
0.00131303
0.00131267
0.00131084
0.00130763
0.00130322
0.00129787
0.00129191
0.0012858
0.00128005
0.00127523
0.00127195
0.00127079
0.00127223
0.00127659
0.00128401
0.00129423
0.00130666
0.00132031
0.00133398
0.00134623
0.00135576
0.00136103
7.26327e-05
6.86229e-05
0.000110771
0.000232609
0.000446494
0.000713059
0.00096064
0.00114092
0.00124757
0.00129734
0.00131076
0.00130449
0.00129023
0.00127532
0.00126368
0.00125682
0.00125476
0.00125674
0.00126171
0.0012686
0.00127645
0.0012845
0.00129214
0.00129895
0.00130463
0.00130898
0.00131187
0.00131325
0.00131306
0.0013113
0.00130799
0.00130319
0.00129704
0.00128973
0.00128155
0.00127286
0.00126413
0.00125592
0.00124881
0.00124344
0.00124037
0.00124007
0.00124287
0.00124876
0.00125739
0.00126797
0.0012794
0.00129021
0.00129895
0.00130389
7.22823e-05
6.81927e-05
0.000113215
0.000242189
0.000466488
0.000743397
0.000998493
0.0011833
0.00129256
0.00134364
0.00135703
0.00134924
0.00133198
0.00131291
0.00129644
0.00128461
0.00127785
0.00127566
0.00127708
0.00128104
0.00128652
0.00129262
0.00129864
0.00130402
0.00130838
0.00131144
0.00131303
0.00131306
0.00131147
0.00130825
0.00130341
0.00129701
0.00128913
0.00127993
0.00126963
0.00125855
0.00124708
0.00123573
0.00122507
0.00121571
0.00120828
0.00120335
0.00120137
0.00120259
0.00120688
0.00121372
0.00122216
0.00123084
0.00123824
0.00124256
7.1252e-05
6.70933e-05
0.000115022
0.000251127
0.000485682
0.000772585
0.00103478
0.00122381
0.00133559
0.00138819
0.00140209
0.00139351
0.00137402
0.00135143
0.00133053
0.00131384
0.00130223
0.00129553
0.00129298
0.00129356
0.00129623
0.00130003
0.00130413
0.00130788
0.00131077
0.00131244
0.00131267
0.0013113
0.00130825
0.0013035
0.00129707
0.00128898
0.00127932
0.00126822
0.00125584
0.00124245
0.00122839
0.0012141
0.00120009
0.00118696
0.00117534
0.00116587
0.00115908
0.00115541
0.00115496
0.00115748
0.00116225
0.00116809
0.00117359
0.00117693
6.94841e-05
6.52678e-05
0.000116131
0.000259346
0.000503981
0.000800524
0.0010694
0.00126232
0.0013765
0.00143075
0.00144557
0.00143687
0.00141595
0.00139059
0.00136582
0.00134455
0.0013281
0.00131668
0.00130979
0.00130656
0.00130598
0.00130706
0.00130889
0.00131072
0.00131194
0.00131208
0.00131084
0.00130799
0.00130341
0.00129707
0.00128895
0.00127909
0.00126756
0.00125448
0.00123998
0.00122429
0.00120769
0.00119055
0.00117334
0.0011566
0.00114096
0.00112704
0.00111546
0.00110678
0.00110132
0.00109904
0.00109954
0.0011019
0.00110491
0.00110694
6.69212e-05
6.26591e-05
0.000116475
0.000266763
0.000521288
0.000827115
0.00110226
0.00129875
0.00141515
0.00147109
0.00148715
0.0014789
0.00145732
0.00143
0.00140205
0.00137667
0.00135559
0.00133939
0.00132791
0.00132048
0.00131621
0.00131412
0.00131327
0.00131283
0.00131209
0.0013105
0.00130763
0.00130319
0.00129701
0.00128898
0.00127909
0.00126736
0.00125385
0.00123867
0.00122195
0.00120388
0.0011847
0.00116472
0.00114436
0.0011241
0.00110453
0.00108626
0.00106993
0.00105618
0.00104549
0.00103806
0.00103378
0.00103207
0.00103205
0.00103242
6.35084e-05
5.92129e-05
0.000115992
0.000273299
0.000537507
0.00085226
0.00113328
0.00133299
0.00145141
0.00150903
0.00152652
0.0015192
0.00149765
0.00146918
0.00143884
0.00141
0.00138467
0.00136382
0.00134763
0.00133572
0.00132735
0.00132165
0.00131768
0.00131457
0.00131153
0.00130792
0.00130322
0.00129704
0.00128913
0.00127932
0.00126756
0.00125385
0.00123825
0.00122083
0.00120174
0.00118115
0.00115926
0.00113636
0.0011128
0.00108902
0.00106553
0.00104293
0.00102186
0.00100298
0.0009869
0.000974036
0.000964556
0.000958254
0.000954721
0.000953114
5.91979e-05
5.48814e-05
0.000114625
0.000278878
0.000552546
0.000875864
0.00116237
0.00136499
0.00148519
0.0015444
0.00156345
0.0015574
0.00153647
0.00150762
0.00147574
0.00144418
0.00141517
0.00139
0.00136917
0.00135262
0.00133986
0.00133013
0.0013226
0.00131638
0.00131064
0.00130468
0.00129787
0.00128973
0.00127993
0.00126822
0.00125448
0.00123867
0.00122083
0.00120104
0.00117941
0.00115611
0.00113134
0.00110534
0.00107843
0.001051
0.0010235
0.000996503
0.000970614
0.0009465
0.000924864
0.000906293
0.000891234
0.000879892
0.000872394
0.000868517
5.3952e-05
4.96269e-05
0.000112326
0.00028343
0.000566316
0.00089784
0.00118946
0.00139468
0.00151644
0.00157711
0.00159773
0.00159319
0.00157334
0.00154481
0.0015122
0.00147876
0.0014468
0.00141781
0.00139262
0.00137145
0.00135411
0.00134004
0.00132853
0.00131876
0.0013099
0.00130118
0.00129191
0.00128155
0.00126963
0.00125584
0.00123998
0.00122195
0.00120174
0.00117941
0.00115506
0.00112884
0.00110096
0.00107162
0.00104113
0.00100981
0.000978095
0.000946487
0.000915574
0.00088602
0.000858573
0.000833976
0.000812948
0.000796127
0.000784248
0.00077783
4.7749e-05
4.34276e-05
0.00010906
0.000286899
0.000578742
0.000918109
0.00121449
0.00142201
0.00154512
0.00160708
0.00162923
0.00162631
0.00160789
0.00158024
0.00154764
0.00151317
0.00147908
0.00144697
0.00141787
0.00139233
0.0013704
0.0013518
0.00133598
0.00132225
0.00130981
0.00129791
0.0012858
0.00127286
0.00125855
0.00124245
0.00122429
0.00120388
0.00118115
0.00115611
0.00112884
0.00109949
0.00106821
0.00103524
0.00100084
0.000965299
0.000929015
0.000892443
0.000856139
0.000820762
0.000787091
0.000756021
0.00072855
0.000705773
0.0006891
0.000679884
4.05883e-05
3.62822e-05
0.000104815
0.000289247
0.000589761
0.000936604
0.00123741
0.00144697
0.00157119
0.00163428
0.00165784
0.00165657
0.00163979
0.00161345
0.00158152
0.00154682
0.00151145
0.00147702
0.00144468
0.00141519
0.00138888
0.00136572
0.0013454
0.00132737
0.00131095
0.00129542
0.00128005
0.00126413
0.00124708
0.00122839
0.00120769
0.0011847
0.00115926
0.00113134
0.00110096
0.00106821
0.00103327
0.000996321
0.000957603
0.000917399
0.000876051
0.000833977
0.000791701
0.00074988
0.000709339
0.000671145
0.000636607
0.000607334
0.000585465
0.000573228
3.24966e-05
2.82169e-05
9.96016e-05
0.000290458
0.000599334
0.00095328
0.00125818
0.00146953
0.00159467
0.0016587
0.00168354
0.00168386
0.0016688
0.00164406
0.0016133
0.00157907
0.00154326
0.00150738
0.00147259
0.00143978
0.00140951
0.00138198
0.00135712
0.00133459
0.00131387
0.00129431
0.00127523
0.00125592
0.00123573
0.0012141
0.00119055
0.00116472
0.00113636
0.00110534
0.00107162
0.00103524
0.000996321
0.000955014
0.000911527
0.000866105
0.000819046
0.000770726
0.000721641
0.000672461
0.000624114
0.000577894
0.000535528
0.000499223
0.000471876
0.000456512
2.35308e-05
1.92877e-05
9.34607e-05
0.000290544
0.000607445
0.000968117
0.00127681
0.00148973
0.00161561
0.00168041
0.00170636
0.00170815
0.0016948
0.00167179
0.00164255
0.00160935
0.00157384
0.00153736
0.001501
0.00146566
0.00143204
0.00140054
0.00137132
0.00134427
0.00131904
0.00129514
0.00127195
0.00124881
0.00122507
0.00120009
0.00117334
0.00114436
0.0011128
0.00107843
0.00104113
0.00100084
0.000957603
0.000911527
0.00086275
0.000811456
0.00075788
0.000702345
0.000645328
0.000587562
0.000530181
0.000474866
0.000423948
0.000380351
0.000347657
0.000329383
1.37837e-05
9.58616e-06
8.64666e-05
0.000289548
0.000614109
0.00098112
0.0012933
0.00150761
0.00163407
0.00169947
0.00172637
0.00172948
0.00171775
0.0016965
0.00166897
0.0016372
0.00160259
0.00156626
0.00152918
0.00149219
0.00145599
0.00142115
0.00138798
0.00135658
0.00132683
0.00129839
0.00127079
0.00124344
0.00121571
0.00118696
0.0011566
0.0011241
0.00108902
0.001051
0.00100981
0.000965299
0.000917399
0.000866105
0.000811456
0.000753532
0.000692472
0.000628527
0.000562186
0.000494354
0.000426581
0.000361241
0.000301552
0.000251229
0.00021423
0.000193875
3.39793e-06
-7.46866e-07
7.87419e-05
0.000287558
0.000619381
0.000992333
0.00130773
0.00152323
0.00165014
0.00171601
0.00174368
0.00174794
0.00173768
0.00171814
0.00169238
0.00166226
0.00162899
0.00159346
0.00155644
0.00151865
0.00148075
0.00144332
0.0014068
0.00137147
0.00133739
0.00130442
0.00127223
0.00124037
0.00120828
0.00117534
0.00114096
0.00110453
0.00106553
0.0010235
0.000978095
0.000929015
0.000876051
0.000819046
0.00075788
0.000692472
0.000622815
0.000549091
0.000471885
0.000392498
0.000313283
0.000237773
0.000170359
0.000115397
7.64984e-05
5.57136e-05
-7.43957e-06
-1.15262e-05
7.04517e-05
0.000284702
0.000623354
0.00100183
0.00132016
0.00153671
0.00166395
0.00173016
0.00175845
0.00176368
0.00175471
0.00173673
0.00171269
0.00168431
0.00165263
0.00161835
0.00158203
0.00154424
0.00150551
0.00146637
0.0014273
0.00138866
0.00135066
0.00131336
0.00127659
0.00124007
0.00120335
0.00116587
0.00112704
0.00108626
0.00104293
0.000996503
0.000946487
0.000892443
0.000833977
0.000770726
0.000702345
0.000628527
0.000549091
0.000464199
0.00037474
0.000282831
0.000192205
0.00010805
3.59657e-05
-1.96981e-05
-5.68229e-05
-7.57715e-05
-1.84828e-05
-2.25079e-05
6.18178e-05
0.000281162
0.000626169
0.00100974
0.00133073
0.00154818
0.00167566
0.0017421
0.00177086
0.00177688
0.00176902
0.00175241
0.00172996
0.00170328
0.00167327
0.0016405
0.00160535
0.0015682
0.00152943
0.00148945
0.00144869
0.00140754
0.00136628
0.0013251
0.00128401
0.00124287
0.00120137
0.00115908
0.00111546
0.00106993
0.00102186
0.000970614
0.000915574
0.000856139
0.000791701
0.000721641
0.000645328
0.000562186
0.000471885
0.00037474
0.000272351
0.000168278
6.82552e-05
-2.06962e-05
-9.23765e-05
-0.000143672
-0.000175154
-0.000190153
-2.94484e-05
-3.34111e-05
5.30977e-05
0.000277151
0.000627995
0.00101621
0.00133958
0.0015578
0.00168544
0.00175202
0.00178114
0.00178778
0.00178083
0.00176538
0.00174432
0.00171919
0.00169082
0.00165964
0.00162592
0.00158986
0.00155167
0.00151163
0.00147005
0.00142725
0.00138354
0.00133916
0.00129423
0.00124876
0.00120259
0.00115541
0.00110678
0.00105618
0.00100298
0.0009465
0.00088602
0.000820762
0.00074988
0.000672461
0.000587562
0.000494354
0.000392498
0.000282831
0.000168278
5.45125e-05
-5.04629e-05
-0.000138413
-0.000203934
-0.000246517
-0.000269928
-0.000279958
-3.99893e-05
-4.38913e-05
4.46096e-05
0.000272939
0.000629053
0.00102142
0.00134689
0.00156577
0.00169351
0.00176016
0.00178952
0.00179664
0.0017904
0.00177591
0.00175601
0.00173223
0.00170534
0.0016757
0.00164347
0.00160873
0.00157155
0.00153204
0.00149038
0.00144678
0.00140148
0.00135472
0.00130666
0.00125739
0.00120688
0.00115496
0.00110132
0.00104549
0.0009869
0.000924864
0.000858573
0.000787091
0.000709339
0.000624114
0.000530181
0.000426581
0.000313283
0.000192205
6.82552e-05
-5.04629e-05
-0.000154268
-0.000235248
-0.000290436
-0.000322563
-0.000337929
-0.000343443
-4.97585e-05
-5.36039e-05
3.66688e-05
0.000268786
0.000629542
0.00102554
0.00135284
0.00157225
0.00170004
0.0017667
0.00179622
0.00180368
0.00179799
0.00178424
0.00176527
0.0017426
0.00171698
0.00168871
0.00165789
0.00162452
0.00158854
0.00154995
0.00150876
0.00146507
0.00141899
0.00137068
0.00132031
0.00126797
0.00121372
0.00115748
0.00109904
0.00103806
0.000974036
0.000906293
0.000833976
0.000756021
0.000671145
0.000577894
0.000474866
0.000361241
0.000237773
0.00010805
-2.06962e-05
-0.000138413
-0.000235248
-0.000305426
-0.000349308
-0.000372263
-0.000381641
-0.00038409
-5.83403e-05
-6.21358e-05
2.96549e-05
0.000265005
0.000629707
0.00102878
0.00135759
0.00157743
0.00170523
0.00177187
0.00180147
0.00180917
0.00180387
0.00179067
0.00177242
0.00175061
0.001726
0.00169886
0.00166927
0.00163715
0.00160238
0.00156485
0.00152445
0.00148114
0.00143492
0.00138584
0.00133398
0.0012794
0.00122216
0.00116225
0.00109954
0.00103378
0.000964556
0.000891234
0.000812948
0.00072855
0.000636607
0.000535528
0.000423948
0.000301552
0.000170359
3.59657e-05
-9.23765e-05
-0.000203934
-0.000290436
-0.000349308
-0.000383853
-0.00040069
-0.000406811
-0.000407806
-6.53964e-05
-6.91506e-05
2.38645e-05
0.000261815
0.000629678
0.00103119
0.0013612
0.00158137
0.00170915
0.00177575
0.00180538
0.00181322
0.00180818
0.00179537
0.00177762
0.00175645
0.00173259
0.00170632
0.00167769
0.0016466
0.00161289
0.00157635
0.00153682
0.00149413
0.00144818
0.00139889
0.00134623
0.00129021
0.00123084
0.00116809
0.0011019
0.00103207
0.000958254
0.000879892
0.000796127
0.000705773
0.000607334
0.000499223
0.000380351
0.000251229
0.000115397
-1.96981e-05
-0.000143672
-0.000246517
-0.000322563
-0.000372263
-0.00040069
-0.00041448
-0.000419564
-0.000420319
-7.0474e-05
-7.41975e-05
1.96998e-05
0.000259519
0.000629646
0.0010329
0.00136376
0.00158415
0.00171191
0.00177845
0.00180809
0.00181601
0.00181113
0.00179855
0.00178113
0.00176037
0.00173701
0.00171133
0.00168338
0.00165303
0.00162009
0.00158434
0.00154555
0.00150347
0.00145791
0.00140872
0.00135576
0.00129895
0.00123824
0.00117359
0.00110491
0.00103205
0.000954721
0.000872394
0.000784248
0.0006891
0.000585465
0.000471876
0.000347657
0.00021423
7.64984e-05
-5.68229e-05
-0.000175154
-0.000269928
-0.000337929
-0.000381641
-0.000406811
-0.000419564
-0.000424835
-0.000426026
-7.32609e-05
-7.69947e-05
1.73681e-05
0.000258199
0.000629576
0.0010338
0.00136511
0.00158559
0.00171332
0.00177983
0.00180946
0.00181742
0.00181261
0.00180015
0.00178289
0.00176234
0.00173923
0.00171385
0.00168624
0.00165628
0.00162377
0.00158846
0.00155008
0.00150838
0.00146311
0.00141405
0.00136103
0.00130389
0.00124256
0.00117693
0.00110694
0.00103242
0.000953114
0.000868517
0.00077783
0.000679884
0.000573228
0.000456512
0.000329383
0.000193875
5.57136e-05
-7.57715e-05
-0.000190153
-0.000279958
-0.000343443
-0.00038409
-0.000407806
-0.000420319
-0.000426026
-0.000427679
)
;

boundaryField
{
    bottomWall
    {
        type            zeroGradient;
    }
    leftWall
    {
        type            zeroGradient;
    }
    topSym
    {
        type            symmetryPlane;
    }
    rightSym
    {
        type            symmetryPlane;
    }
    inlet
    {
        type            cyclic;
    }
    outlet
    {
        type            cyclic;
    }
}


// ************************************************************************* //
