/*--------------------------------*- C++ -*----------------------------------*\
| =========                 |                                                 |
| \\      /  F ield         | OpenFOAM: The Open Source CFD Toolbox           |
|  \\    /   O peration     | Version:  v1912                                 |
|   \\  /    A nd           | Website:  www.openfoam.com                      |
|    \\/     M anipulation  |                                                 |
\*---------------------------------------------------------------------------*/
FoamFile
{
    version     2.0;
    format      ascii;
    class       surfaceScalarField;
    location    "4000";
    object      phi;
}
// * * * * * * * * * * * * * * * * * * * * * * * * * * * * * * * * * * * * * //

dimensions      [0 3 -1 0 0 0 0];
oriented        oriented;


internalField   nonuniform List<scalar> 
4900
(
2.6239e-17
5.4811e-17
-6.8698e-11
6.86981e-11
-2.69347e-10
2.0065e-10
-7.08185e-10
4.38838e-10
-1.47497e-09
7.66789e-10
-2.54293e-09
1.06795e-09
-3.70842e-09
1.16549e-09
-4.61762e-09
9.09199e-10
-4.87324e-09
2.55615e-10
-4.14928e-09
-7.23951e-10
-2.26189e-09
-1.88739e-09
8.14527e-10
-3.07642e-09
4.97262e-09
-4.15809e-09
1.00183e-08
-5.04569e-09
1.57191e-08
-5.70077e-09
2.18432e-08
-6.12408e-09
2.81853e-08
-6.34217e-09
3.45801e-08
-6.39475e-09
4.0905e-08
-6.32492e-09
4.70777e-08
-6.17268e-09
5.30493e-08
-5.97159e-09
5.87966e-08
-5.74735e-09
6.43145e-08
-5.51788e-09
6.96087e-08
-5.29417e-09
7.469e-08
-5.08127e-09
7.95694e-08
-4.87947e-09
8.42546e-08
-4.68521e-09
8.87466e-08
-4.49197e-09
9.30374e-08
-4.29077e-09
9.7108e-08
-4.07063e-09
1.00927e-07
-3.81886e-09
1.04448e-07
-3.5213e-09
1.07611e-07
-3.16248e-09
1.10337e-07
-2.72592e-09
1.12531e-07
-2.19442e-09
1.14082e-07
-1.55076e-09
1.14861e-07
-7.79493e-10
1.1473e-07
1.30926e-10
1.13538e-07
1.19193e-09
1.11126e-07
2.41235e-09
1.07336e-07
3.78954e-09
1.02025e-07
5.31137e-09
9.50735e-08
6.95161e-09
8.63997e-08
8.67381e-09
7.59748e-08
1.04248e-08
6.38222e-08
1.21526e-08
5.00272e-08
1.3795e-08
3.47017e-08
1.53255e-08
1.79952e-08
1.67065e-08
1.79952e-08
6.8698e-11
-6.8698e-11
6.8698e-11
6.86981e-11
-1.6567e-10
4.35018e-10
-8.27364e-10
1.10053e-09
-2.05856e-09
1.99798e-09
-3.75406e-09
2.76346e-09
-5.43233e-09
2.84377e-09
-6.30496e-09
1.78183e-09
-5.51325e-09
-5.36096e-10
-2.37334e-09
-3.86387e-09
3.4781e-09
-7.73882e-09
1.20555e-08
-1.16538e-08
2.30834e-08
-1.5186e-08
3.60991e-08
-1.80614e-08
5.05588e-08
-2.01605e-08
6.59245e-08
-2.14898e-08
8.17211e-08
-2.21388e-08
9.75659e-08
-2.22395e-08
1.13176e-07
-2.19351e-08
1.28362e-07
-2.13583e-08
1.43011e-07
-2.06207e-08
1.57071e-07
-1.98079e-08
1.70533e-07
-1.898e-08
1.83413e-07
-1.81734e-08
1.95737e-07
-1.74052e-08
2.07533e-07
-1.66761e-08
2.18822e-07
-1.59739e-08
2.29606e-07
-1.52763e-08
2.39868e-07
-1.45524e-08
2.49562e-07
-1.37645e-08
2.58612e-07
-1.2869e-08
2.66908e-07
-1.1817e-08
2.743e-07
-1.0555e-08
2.806e-07
-9.02594e-09
2.85576e-07
-7.17031e-09
2.88954e-07
-4.92833e-09
2.9042e-07
-2.2461e-09
2.89634e-07
9.1753e-10
2.86223e-07
4.60233e-09
2.79798e-07
8.83804e-09
2.6997e-07
1.36176e-08
2.56382e-07
1.88989e-08
2.38739e-07
2.45945e-08
2.16837e-07
3.05764e-08
1.90594e-07
3.66675e-08
1.60066e-07
4.26808e-08
1.25447e-07
4.8414e-08
8.7015e-08
5.37573e-08
4.51227e-08
5.85988e-08
6.31179e-08
2.00649e-10
-2.69347e-10
4.35018e-10
-1.6567e-10
4.35018e-10
4.35018e-10
-1.04728e-11
1.54602e-09
-1.00268e-09
2.99018e-09
-2.31114e-09
4.07192e-09
-3.174e-09
3.70663e-09
-2.41517e-09
1.023e-09
1.18131e-09
-4.13258e-09
8.52506e-09
-1.12076e-08
2.00434e-08
-1.92572e-08
3.56696e-08
-2.72799e-08
5.49391e-08
-3.44555e-08
7.7137e-08
-4.02592e-08
1.01444e-07
-4.44676e-08
1.27056e-07
-4.71019e-08
1.53263e-07
-4.83457e-08
1.7949e-07
-4.84661e-08
2.05307e-07
-4.77525e-08
2.30424e-07
-4.64749e-08
2.54664e-07
-4.48612e-08
2.77944e-07
-4.30875e-08
3.00242e-07
-4.1278e-08
3.21577e-07
-3.95092e-08
3.41989e-07
-3.78169e-08
3.61516e-07
-3.62031e-08
3.80184e-07
-3.46424e-08
3.97996e-07
-3.30873e-08
4.14915e-07
-3.14721e-08
4.30866e-07
-2.97155e-08
4.4572e-07
-2.77232e-08
4.59292e-07
-2.53888e-08
4.71333e-07
-2.25957e-08
4.81526e-07
-1.9219e-08
4.89483e-07
-1.5128e-08
4.94746e-07
-1.01912e-08
4.96789e-07
-4.28888e-09
4.95035e-07
2.67193e-09
4.88858e-07
1.07791e-08
4.77599e-07
2.00972e-08
4.60602e-07
3.06146e-08
4.37261e-07
4.22401e-08
4.07068e-07
5.47874e-08
3.6967e-07
6.79746e-08
3.24915e-07
8.14217e-08
2.72884e-07
9.47116e-08
2.13885e-07
1.07413e-07
1.4838e-07
1.19262e-07
7.69481e-08
1.30031e-07
1.40066e-07
4.38838e-10
-7.08185e-10
1.10053e-09
-8.27364e-10
1.54602e-09
-1.04728e-11
1.54602e-09
1.54602e-09
1.19697e-09
3.33923e-09
1.05021e-09
4.21868e-09
2.254e-09
2.50284e-09
6.34221e-09
-3.0652e-09
1.47234e-08
-1.25138e-08
2.82998e-08
-2.4784e-08
4.73484e-08
-3.83059e-08
7.15815e-08
-5.1513e-08
1.00294e-07
-6.3168e-08
1.32538e-07
-7.25032e-08
1.67282e-07
-7.92113e-08
2.03533e-07
-8.33535e-08
2.40422e-07
-8.5234e-08
2.77239e-07
-8.52837e-08
3.13453e-07
-8.39665e-08
3.48695e-07
-8.1717e-08
3.82738e-07
-7.89041e-08
4.15466e-07
-7.58153e-08
4.46843e-07
-7.2655e-08
4.76885e-07
-6.95511e-08
5.05632e-07
-6.65641e-08
5.33127e-07
-6.36981e-08
5.59396e-07
-6.09109e-08
5.8443e-07
-5.81217e-08
6.08176e-07
-5.52177e-08
6.30518e-07
-5.20581e-08
6.51273e-07
-4.84782e-08
6.70176e-07
-4.42914e-08
6.86873e-07
-3.92923e-08
7.00913e-07
-3.32595e-08
7.11746e-07
-2.59612e-08
7.18718e-07
-1.71632e-08
7.2108e-07
-6.65003e-09
7.18003e-07
5.74809e-09
7.08594e-07
2.01881e-08
6.91907e-07
3.67842e-08
6.67e-07
5.55216e-08
6.32998e-07
7.6242e-08
5.89164e-07
9.86221e-08
5.34976e-07
1.22163e-07
4.70198e-07
1.46199e-07
3.94926e-07
1.69984e-07
3.09574e-07
1.92765e-07
2.14792e-07
2.14044e-07
1.11392e-07
2.3343e-07
2.51458e-07
7.66789e-10
-1.47497e-09
1.99798e-09
-2.05856e-09
2.99018e-09
-1.00268e-09
3.33923e-09
1.19697e-09
3.33923e-09
3.33923e-09
4.17868e-09
3.37923e-09
7.76839e-09
-1.08687e-09
1.61137e-08
-1.14105e-08
3.06231e-08
-2.70231e-08
5.18678e-08
-4.60287e-08
7.96926e-08
-6.61307e-08
1.13424e-07
-8.5244e-08
1.52067e-07
-1.01812e-07
1.9448e-07
-1.14916e-07
2.39503e-07
-1.24234e-07
2.86054e-07
-1.29904e-07
3.33193e-07
-1.32373e-07
3.80152e-07
-1.32243e-07
4.26345e-07
-1.30159e-07
4.71355e-07
-1.26727e-07
5.14914e-07
-1.22463e-07
5.56875e-07
-1.17776e-07
5.97178e-07
-1.12958e-07
6.35822e-07
-1.08195e-07
6.72836e-07
-1.03579e-07
7.08254e-07
-9.91157e-08
7.42088e-07
-9.47451e-08
7.74314e-07
-9.03471e-08
8.04848e-07
-8.57518e-08
8.33535e-07
-8.07454e-08
8.60132e-07
-7.50752e-08
8.84294e-07
-6.84534e-08
9.05563e-07
-6.05611e-08
9.23357e-07
-5.10534e-08
9.36963e-07
-3.95676e-08
9.45537e-07
-2.57365e-08
9.48105e-07
-9.21812e-09
9.43592e-07
1.02606e-08
9.30834e-07
3.29464e-08
9.08601e-07
5.90176e-08
8.75663e-07
8.84596e-08
8.30873e-07
1.21031e-07
7.7326e-07
1.56236e-07
7.02127e-07
1.93296e-07
6.17143e-07
2.31183e-07
5.18407e-07
2.68721e-07
4.06429e-07
3.04743e-07
2.82038e-07
3.38436e-07
1.46271e-07
3.69197e-07
3.97729e-07
1.06795e-09
-2.54293e-09
2.76346e-09
-3.75406e-09
4.07192e-09
-2.31114e-09
4.21868e-09
1.05021e-09
3.37923e-09
4.17868e-09
3.37923e-09
3.37923e-09
7.33726e-09
-5.0449e-09
1.82031e-08
-2.22764e-08
3.7556e-08
-4.63761e-08
6.55431e-08
-7.40158e-08
1.01406e-07
-1.01993e-07
1.43954e-07
-1.27793e-07
1.91849e-07
-1.49707e-07
2.43752e-07
-1.66819e-07
2.98404e-07
-1.78886e-07
3.54678e-07
-1.86179e-07
4.11605e-07
-1.893e-07
4.68385e-07
-1.89023e-07
5.2439e-07
-1.86165e-07
5.79157e-07
-1.81494e-07
6.32366e-07
-1.75672e-07
6.83819e-07
-1.69229e-07
7.33411e-07
-1.62549e-07
7.81099e-07
-1.55883e-07
8.26876e-07
-1.49356e-07
8.70745e-07
-1.42984e-07
9.12687e-07
-1.36687e-07
9.52644e-07
-1.30305e-07
9.90497e-07
-1.23604e-07
1.02604e-06
-1.16288e-07
1.05897e-06
-1.08002e-07
1.08885e-06
-9.83384e-08
1.11513e-06
-8.68437e-08
1.1371e-06
-7.30239e-08
1.15389e-06
-5.63581e-08
1.16447e-06
-3.63167e-08
1.16766e-06
-1.24016e-08
1.16213e-06
1.57919e-08
1.14645e-06
4.86195e-08
1.11913e-06
8.6338e-08
1.07866e-06
1.28938e-07
1.02361e-06
1.76081e-07
9.52777e-07
2.27064e-07
8.65299e-07
2.80774e-07
7.60739e-07
3.35743e-07
6.39189e-07
3.9027e-07
5.0125e-07
4.42682e-07
3.47918e-07
4.91767e-07
1.80456e-07
5.3666e-07
5.78185e-07
1.16549e-09
-3.70842e-09
2.84377e-09
-5.43233e-09
3.70663e-09
-3.174e-09
2.50284e-09
2.254e-09
-1.08687e-09
7.76839e-09
-5.0449e-09
7.33726e-09
-5.0449e-09
-5.0449e-09
3.34713e-09
-3.06684e-08
2.26174e-08
-6.56463e-08
5.3034e-08
-1.04432e-07
9.34652e-08
-1.42425e-07
1.42209e-07
-1.76537e-07
1.97483e-07
-2.0498e-07
2.5763e-07
-2.26965e-07
3.21189e-07
-2.42445e-07
3.869e-07
-2.51891e-07
4.53699e-07
-2.56099e-07
5.20702e-07
-2.56026e-07
5.87198e-07
-2.5266e-07
6.52632e-07
-2.46928e-07
7.16596e-07
-2.39636e-07
7.788e-07
-2.31433e-07
8.39055e-07
-2.22804e-07
8.9724e-07
-2.14069e-07
9.53282e-07
-2.05398e-07
1.00712e-06
-1.96821e-07
1.05868e-06
-1.88247e-07
1.10785e-06
-1.79476e-07
1.15446e-06
-1.70212e-07
1.19824e-06
-1.60068e-07
1.23881e-06
-1.48578e-07
1.27568e-06
-1.35202e-07
1.30816e-06
-1.19331e-07
1.33544e-06
-1.00301e-07
1.35649e-06
-7.74078e-08
1.37011e-06
-4.99319e-08
1.3749e-06
-1.71903e-08
1.3693e-06
2.13827e-08
1.35166e-06
6.6269e-08
1.32017e-06
1.17819e-07
1.27308e-06
1.76032e-07
1.2087e-06
2.40462e-07
1.12559e-06
3.10171e-07
1.02271e-06
3.83653e-07
8.99529e-07
4.58927e-07
7.56123e-07
5.33676e-07
5.93176e-07
6.0563e-07
4.11857e-07
6.73085e-07
2.1366e-07
7.34857e-07
7.91845e-07
9.09199e-10
-4.61762e-09
1.78183e-09
-6.30496e-09
1.023e-09
-2.41517e-09
-3.0652e-09
6.34221e-09
-1.14105e-08
1.61137e-08
-2.22764e-08
1.82031e-08
-3.06684e-08
3.34713e-09
-3.06684e-08
-3.06684e-08
-1.81897e-08
-7.8125e-08
8.1085e-09
-1.30731e-07
4.74462e-08
-1.81762e-07
9.79443e-08
-2.27035e-07
1.57402e-07
-2.64438e-07
2.23713e-07
-2.93276e-07
2.95021e-07
-3.13754e-07
3.69756e-07
-3.26626e-07
4.46605e-07
-3.32948e-07
5.24482e-07
-3.33902e-07
6.02499e-07
-3.30677e-07
6.79944e-07
-3.24373e-07
7.56256e-07
-3.15948e-07
8.31007e-07
-3.06184e-07
9.03875e-07
-2.95672e-07
9.74622e-07
-2.84816e-07
1.04306e-06
-2.7384e-07
1.10905e-06
-2.62802e-07
1.17241e-06
-2.51606e-07
1.23295e-06
-2.40022e-07
1.29043e-06
-2.27692e-07
1.3445e-06
-2.1414e-07
1.39471e-06
-1.98783e-07
1.44044e-06
-1.80937e-07
1.48094e-06
-1.59826e-07
1.51523e-06
-1.34596e-07
1.54216e-06
-1.04337e-07
1.56034e-06
-6.81152e-08
1.56819e-06
-2.5036e-08
1.56392e-06
2.5657e-08
1.5456e-06
8.45882e-08
1.5112e-06
1.52214e-07
1.45868e-06
2.2855e-07
1.38611e-06
3.13035e-07
1.29182e-06
4.0446e-07
1.1746e-06
5.00879e-07
1.0338e-06
5.99725e-07
8.69501e-07
6.97973e-07
6.82471e-07
7.92659e-07
4.74055e-07
8.81501e-07
2.45991e-07
9.62921e-07
1.03784e-06
2.55615e-10
-4.87324e-09
-5.36096e-10
-5.51325e-09
-4.13258e-09
1.18131e-09
-1.25138e-08
1.47234e-08
-2.70231e-08
3.06231e-08
-4.63761e-08
3.7556e-08
-6.56463e-08
2.26174e-08
-7.8125e-08
-1.81897e-08
-7.8125e-08
-7.8125e-08
-6.25411e-08
-1.46314e-07
-3.08814e-08
-2.13422e-07
1.55275e-08
-2.73444e-07
7.4454e-08
-3.23365e-07
1.43429e-07
-3.62251e-07
2.20118e-07
-3.90442e-07
3.02468e-07
-4.08975e-07
3.88741e-07
-4.19221e-07
4.77496e-07
-4.22657e-07
5.67545e-07
-4.20726e-07
6.5792e-07
-4.14749e-07
7.47841e-07
-4.05869e-07
8.36681e-07
-3.95024e-07
9.23941e-07
-3.82932e-07
1.00922e-06
-3.70095e-07
1.09219e-06
-3.56808e-07
1.17255e-06
-3.43165e-07
1.25003e-06
-3.29083e-07
1.32431e-06
-3.14306e-07
1.39504e-06
-2.9842e-07
1.46176e-06
-2.80865e-07
1.52392e-06
-2.60938e-07
1.58079e-06
-2.37806e-07
1.63148e-06
-2.10515e-07
1.67489e-06
-1.78006e-07
1.7097e-06
-1.39146e-07
1.73435e-06
-9.27657e-08
1.74705e-06
-3.77334e-08
1.74578e-06
2.6926e-08
1.72837e-06
1.01994e-07
1.69254e-06
1.88045e-07
1.63598e-06
2.85116e-07
1.55649e-06
3.92518e-07
1.4522e-06
5.08749e-07
1.32171e-06
6.31368e-07
1.16429e-06
7.57147e-07
9.80001e-07
8.82264e-07
7.69696e-07
1.00296e-06
5.34915e-07
1.11628e-06
2.7766e-07
1.22018e-06
1.3155e-06
-7.23951e-10
-4.14928e-09
-3.86387e-09
-2.37334e-09
-1.12076e-08
8.52506e-09
-2.4784e-08
2.82998e-08
-4.60287e-08
5.18678e-08
-7.40158e-08
6.55431e-08
-1.04432e-07
5.3034e-08
-1.30731e-07
8.1085e-09
-1.46314e-07
-6.25411e-08
-1.46314e-07
-1.46314e-07
-1.28352e-07
-2.31384e-07
-9.23527e-08
-3.09443e-07
-3.98497e-08
-3.75868e-07
2.67793e-08
-4.2888e-07
1.04898e-07
-4.68561e-07
1.91966e-07
-4.96043e-07
2.85711e-07
-5.12966e-07
3.84185e-07
-5.21131e-07
4.85758e-07
-5.223e-07
5.8909e-07
-5.1808e-07
6.93081e-07
-5.0986e-07
7.96839e-07
-4.98781e-07
8.99633e-07
-4.85726e-07
1.00086e-06
-4.71321e-07
1.1e-06
-4.55951e-07
1.1966e-06
-4.39766e-07
1.29022e-06
-4.22702e-07
1.3804e-06
-4.04487e-07
1.46664e-06
-3.84661e-07
1.54836e-06
-3.62577e-07
1.62483e-06
-3.37414e-07
1.69521e-06
-3.08185e-07
1.75844e-06
-2.7375e-07
1.81328e-06
-2.32837e-07
1.8582e-06
-1.84072e-07
1.89147e-06
-1.26032e-07
1.91106e-06
-5.73287e-08
1.91473e-06
2.32564e-08
1.90005e-06
1.16677e-07
1.86446e-06
2.23632e-07
1.80539e-06
3.44185e-07
1.7204e-06
4.77509e-07
1.60738e-06
6.21775e-07
1.46474e-06
7.73998e-07
1.29168e-06
9.30215e-07
1.08823e-06
1.08571e-06
8.55356e-07
1.23584e-06
5.948e-07
1.37684e-06
3.08857e-07
1.50612e-06
1.62435e-06
-1.88739e-09
-2.26189e-09
-7.73882e-09
3.47809e-09
-1.92572e-08
2.00434e-08
-3.83059e-08
4.73484e-08
-6.61307e-08
7.96926e-08
-1.01993e-07
1.01406e-07
-1.42425e-07
9.34652e-08
-1.81762e-07
4.74462e-08
-2.13422e-07
-3.08814e-08
-2.31384e-07
-1.28352e-07
-2.31384e-07
-2.31384e-07
-2.11407e-07
-3.29421e-07
-1.7151e-07
-4.15764e-07
-1.1326e-07
-4.8713e-07
-3.9087e-08
-5.42733e-07
4.82434e-08
-5.83374e-07
1.45994e-07
-6.10717e-07
2.5166e-07
-6.26796e-07
3.63053e-07
-6.33693e-07
4.78324e-07
-6.33351e-07
5.95938e-07
-6.27474e-07
7.14632e-07
-6.17475e-07
8.33368e-07
-6.04462e-07
9.51281e-07
-5.89235e-07
1.06763e-06
-5.72303e-07
1.18177e-06
-5.53898e-07
1.29305e-06
-5.3399e-07
1.40087e-06
-5.12305e-07
1.50454e-06
-4.88334e-07
1.60332e-06
-4.61348e-07
1.69631e-06
-4.30404e-07
1.78248e-06
-3.94356e-07
1.8606e-06
-3.51869e-07
1.9292e-06
-3.01444e-07
1.98659e-06
-2.41456e-07
2.03077e-06
-1.70211e-07
2.05948e-06
-8.60471e-08
2.07022e-06
1.25198e-08
2.06027e-06
1.26629e-07
2.02679e-06
2.57108e-07
1.96693e-06
4.04042e-07
1.87799e-06
5.66457e-07
1.7576e-06
7.42164e-07
1.60402e-06
9.27578e-07
1.41631e-06
1.11792e-06
1.19454e-06
1.30748e-06
9.3976e-07
1.49062e-06
6.53942e-07
1.66266e-06
3.39709e-07
1.82035e-06
1.96406e-06
-3.07642e-09
8.14527e-10
-1.16538e-08
1.20555e-08
-2.72799e-08
3.56696e-08
-5.1513e-08
7.15815e-08
-8.5244e-08
1.13424e-07
-1.27793e-07
1.43954e-07
-1.76537e-07
1.42209e-07
-2.27035e-07
9.79443e-08
-2.73444e-07
1.55275e-08
-3.09443e-07
-9.23527e-08
-3.29421e-07
-2.11407e-07
-3.29421e-07
-3.29421e-07
-3.07552e-07
-4.37633e-07
-2.63862e-07
-5.3082e-07
-1.99878e-07
-6.06718e-07
-1.18048e-07
-6.65204e-07
-2.12426e-08
-7.07522e-07
8.76128e-08
-7.35652e-07
2.05775e-07
-7.51855e-07
3.30805e-07
-7.58381e-07
4.60608e-07
-7.57277e-07
5.93427e-07
-7.50295e-07
7.27803e-07
-7.38837e-07
8.62519e-07
-7.23951e-07
9.96545e-07
-7.06329e-07
1.12897e-06
-6.86327e-07
1.25897e-06
-6.63985e-07
1.3857e-06
-6.3904e-07
1.50832e-06
-6.10949e-07
1.62587e-06
-5.78898e-07
1.73728e-06
-5.41815e-07
1.84131e-06
-4.98386e-07
1.93651e-06
-4.47068e-07
2.02119e-06
-3.8612e-07
2.09338e-06
-3.13647e-07
2.15083e-06
-2.27669e-07
2.19102e-06
-1.26232e-07
2.21111e-06
-7.56981e-09
2.20808e-06
1.29663e-07
2.17877e-06
2.86411e-07
2.12003e-06
4.62783e-07
2.02885e-06
6.57637e-07
1.90263e-06
8.68387e-07
1.73942e-06
1.09079e-06
1.53818e-06
1.31916e-06
1.29897e-06
1.54669e-06
1.02298e-06
1.76661e-06
7.12407e-07
1.97323e-06
3.70257e-07
2.1625e-06
2.33432e-06
-4.15809e-09
4.97262e-09
-1.5186e-08
2.30834e-08
-3.44555e-08
5.49391e-08
-6.3168e-08
1.00294e-07
-1.01812e-07
1.52067e-07
-1.49707e-07
1.91849e-07
-2.0498e-07
1.97483e-07
-2.64438e-07
1.57402e-07
-3.23365e-07
7.4454e-08
-3.75868e-07
-3.98497e-08
-4.15764e-07
-1.7151e-07
-4.37633e-07
-3.07552e-07
-4.37633e-07
-4.37633e-07
-4.13876e-07
-5.54578e-07
-3.66339e-07
-6.54254e-07
-2.96486e-07
-7.35058e-07
-2.06764e-07
-7.97244e-07
-1.00137e-07
-8.42279e-07
2.02953e-08
-8.72288e-07
1.51557e-07
-8.89643e-07
2.90948e-07
-8.96668e-07
4.3611e-07
-8.95457e-07
5.85036e-07
-8.87763e-07
7.36034e-07
-8.74949e-07
8.87672e-07
-8.57967e-07
1.03871e-06
-8.37369e-07
1.18804e-06
-8.13315e-07
1.3346e-06
-7.85597e-07
1.47731e-06
-7.53658e-07
1.61502e-06
-7.1661e-07
1.74646e-06
-6.73252e-07
1.87016e-06
-6.22086e-07
1.98443e-06
-5.61344e-07
2.08733e-06
-4.89021e-07
2.17662e-06
-4.02928e-07
2.24972e-06
-3.00775e-07
2.30378e-06
-1.80295e-07
2.33564e-06
-3.94204e-08
2.34188e-06
1.23423e-07
2.319e-06
3.09286e-07
2.26349e-06
5.18292e-07
2.17202e-06
7.49109e-07
2.0417e-06
9.98711e-07
1.87037e-06
1.26212e-06
1.65686e-06
1.53266e-06
1.40124e-06
1.80232e-06
1.10482e-06
2.06304e-06
7.70084e-07
2.30796e-06
4.00451e-07
2.53213e-06
2.73477e-06
-5.04569e-09
1.00183e-08
-1.80614e-08
3.60991e-08
-4.02592e-08
7.7137e-08
-7.25032e-08
1.32538e-07
-1.14916e-07
1.9448e-07
-1.66819e-07
2.43752e-07
-2.26965e-07
2.5763e-07
-2.93276e-07
2.23713e-07
-3.62251e-07
1.43429e-07
-4.2888e-07
2.67793e-08
-4.8713e-07
-1.1326e-07
-5.3082e-07
-2.63862e-07
-5.54578e-07
-4.13876e-07
-5.54578e-07
-5.54578e-07
-5.2888e-07
-6.79952e-07
-4.77372e-07
-7.86565e-07
-4.01442e-07
-8.73174e-07
-3.03529e-07
-9.40191e-07
-1.86676e-07
-9.89142e-07
-5.41445e-08
-1.02217e-06
9.08596e-08
-1.04167e-06
2.45369e-07
-1.04997e-06
4.06743e-07
-1.04914e-06
5.72693e-07
-1.0409e-06
7.41257e-07
-1.02653e-06
9.10742e-07
-1.00685e-06
1.07966e-06
-9.82228e-07
1.24662e-06
-9.52562e-07
1.4103e-06
-9.17333e-07
1.5693e-06
-8.7561e-07
1.72212e-06
-8.26072e-07
1.86707e-06
-7.67036e-07
2.00221e-06
-6.96492e-07
2.12534e-06
-6.12142e-07
2.23388e-06
-5.11475e-07
2.32496e-06
-3.91854e-07
2.39533e-06
-2.50668e-07
2.44144e-06
-8.55255e-08
2.45945e-06
1.05409e-07
2.44546e-06
3.23284e-07
2.39552e-06
5.68228e-07
2.30594e-06
8.38691e-07
2.1735e-06
1.13115e-06
1.99579e-06
1.43983e-06
1.77151e-06
1.75694e-06
1.5007e-06
2.07312e-06
1.18483e-06
2.37891e-06
8.26683e-07
2.6661e-06
4.30149e-07
2.92867e-06
3.16492e-06
-5.70077e-09
1.57191e-08
-2.01605e-08
5.05588e-08
-4.44676e-08
1.01444e-07
-7.92113e-08
1.67282e-07
-1.24234e-07
2.39503e-07
-1.78886e-07
2.98404e-07
-2.42445e-07
3.21189e-07
-3.13754e-07
2.95021e-07
-3.90442e-07
2.20118e-07
-4.68561e-07
1.04898e-07
-5.42733e-07
-3.9087e-08
-6.06718e-07
-1.99878e-07
-6.54254e-07
-3.66339e-07
-6.79952e-07
-5.2888e-07
-6.79952e-07
-6.79952e-07
-6.52236e-07
-8.14281e-07
-5.9659e-07
-9.2882e-07
-5.14323e-07
-1.02246e-06
-4.07859e-07
-1.09561e-06
-2.80309e-07
-1.14972e-06
-1.35092e-07
-1.18689e-06
2.43601e-08
-1.20942e-06
1.94802e-07
-1.21958e-06
3.73289e-07
-1.21939e-06
5.57217e-07
-1.21046e-06
7.44308e-07
-1.19395e-06
9.32556e-07
-1.17048e-06
1.12015e-06
-1.14016e-06
1.30539e-06
-1.10257e-06
1.48659e-06
-1.0568e-06
1.66196e-06
-1.00144e-06
1.82957e-06
-9.34645e-07
1.98722e-06
-8.54145e-07
2.13242e-06
-7.57338e-07
2.26229e-06
-6.41351e-07
2.3736e-06
-5.03163e-07
2.46271e-06
-3.39773e-07
2.52561e-06
-1.4843e-07
2.55802e-06
7.3003e-08
2.55552e-06
3.25781e-07
2.51373e-06
6.10024e-07
2.42848e-06
9.23936e-07
2.29619e-06
1.26345e-06
2.11414e-06
1.62187e-06
1.88086e-06
1.99022e-06
1.59638e-06
2.35761e-06
1.26229e-06
2.713e-06
8.81732e-07
3.04666e-06
4.59114e-07
3.35128e-06
3.62403e-06
-6.12408e-09
2.18432e-08
-2.14898e-08
6.59245e-08
-4.71019e-08
1.27056e-07
-8.33535e-08
2.03533e-07
-1.29904e-07
2.86054e-07
-1.86179e-07
3.54678e-07
-2.51891e-07
3.869e-07
-3.26626e-07
3.69756e-07
-4.08975e-07
3.02468e-07
-4.96043e-07
1.91966e-07
-5.83374e-07
4.82434e-08
-6.65204e-07
-1.18048e-07
-7.35058e-07
-2.96486e-07
-7.86565e-07
-4.77372e-07
-8.14281e-07
-6.52236e-07
-8.14281e-07
-8.14281e-07
-7.8445e-07
-9.58651e-07
-7.24462e-07
-1.08245e-06
-6.35545e-07
-1.18452e-06
-5.20101e-07
-1.26517e-06
-3.81307e-07
-1.32568e-06
-2.22736e-07
-1.36799e-06
-4.8053e-08
-1.39426e-06
1.39206e-07
-1.40665e-06
3.35763e-07
-1.40702e-06
5.38661e-07
-1.39684e-06
7.45251e-07
-1.37707e-06
9.53154e-07
-1.34806e-06
1.16017e-06
-1.30959e-06
1.3642e-06
-1.26083e-06
1.5631e-06
-1.20035e-06
1.75463e-06
-1.12617e-06
1.9363e-06
-1.03582e-06
2.10532e-06
-9.26355e-07
2.2585e-06
-7.9453e-07
2.39223e-06
-6.36894e-07
2.50246e-06
-4.50007e-07
2.58474e-06
-2.30707e-07
2.63425e-06
2.34949e-08
2.64604e-06
3.13996e-07
2.61517e-06
6.40894e-07
2.53697e-06
1.00213e-06
2.40741e-06
1.39301e-06
2.2234e-06
1.80588e-06
1.98325e-06
2.23036e-06
1.68694e-06
2.65392e-06
1.33621e-06
3.06373e-06
9.34568e-07
3.4483e-06
4.87011e-07
3.79884e-06
4.11105e-06
-6.34217e-09
2.81853e-08
-2.21388e-08
8.17211e-08
-4.83457e-08
1.53263e-07
-8.5234e-08
2.40422e-07
-1.32373e-07
3.33193e-07
-1.893e-07
4.11605e-07
-2.56099e-07
4.53699e-07
-3.32948e-07
4.46605e-07
-4.19221e-07
3.88741e-07
-5.12966e-07
2.85711e-07
-6.10717e-07
1.45994e-07
-7.07522e-07
-2.12426e-08
-7.97244e-07
-2.06764e-07
-8.73174e-07
-4.01442e-07
-9.2882e-07
-5.9659e-07
-9.58651e-07
-7.8445e-07
-9.58651e-07
-9.58651e-07
-9.26587e-07
-1.11451e-06
-8.62016e-07
-1.24909e-06
-7.66075e-07
-1.36111e-06
-6.41148e-07
-1.45061e-06
-4.90478e-07
-1.51866e-06
-3.17797e-07
-1.56694e-06
-1.27014e-07
-1.59743e-06
7.80197e-08
-1.61205e-06
2.93659e-07
-1.61248e-06
5.16542e-07
-1.59995e-06
7.43593e-07
-1.57511e-06
9.71983e-07
-1.53798e-06
1.19905e-06
-1.48789e-06
1.42217e-06
-1.42348e-06
1.6387e-06
-1.3427e-06
1.84578e-06
-1.2429e-06
2.04028e-06
-1.12085e-06
2.21866e-06
-9.72917e-07
2.37696e-06
-7.9519e-07
2.5107e-06
-5.83743e-07
2.61493e-06
-3.34944e-07
2.68432e-06
-4.58952e-08
2.71331e-06
2.8501e-07
2.69636e-06
6.57845e-07
2.62821e-06
1.07028e-06
2.50427e-06
1.51695e-06
2.32105e-06
1.98911e-06
2.07656e-06
2.47485e-06
1.77068e-06
2.95981e-06
1.4053e-06
3.4291e-06
9.84325e-07
3.86928e-06
5.13402e-07
4.26976e-06
4.62445e-06
-6.39475e-09
3.45801e-08
-2.22395e-08
9.75659e-08
-4.84661e-08
1.7949e-07
-8.52837e-08
2.77239e-07
-1.32243e-07
3.80152e-07
-1.89023e-07
4.68385e-07
-2.56026e-07
5.20702e-07
-3.33902e-07
5.24482e-07
-4.22657e-07
4.77496e-07
-5.21131e-07
3.84185e-07
-6.26796e-07
2.5166e-07
-7.35652e-07
8.76128e-08
-8.42279e-07
-1.00137e-07
-9.40191e-07
-3.03529e-07
-1.02246e-06
-5.14323e-07
-1.08245e-06
-7.24462e-07
-1.11451e-06
-9.26587e-07
-1.11451e-06
-1.11451e-06
-1.08008e-06
-1.28353e-06
-1.01064e-06
-1.43055e-06
-9.07238e-07
-1.55401e-06
-7.72248e-07
-1.65365e-06
-6.08981e-07
-1.73021e-06
-4.21343e-07
-1.78507e-06
-2.13509e-07
-1.81988e-06
1.0321e-08
-1.83631e-06
2.46091e-07
-1.83572e-06
4.89977e-07
-1.819e-06
7.38402e-07
-1.78641e-06
9.88004e-07
-1.73749e-06
1.23555e-06
-1.67102e-06
1.47782e-06
-1.58497e-06
1.7115e-06
-1.47657e-06
1.93302e-06
-1.34237e-06
2.13845e-06
-1.17835e-06
2.32343e-06
-9.80161e-07
2.48303e-06
-7.43345e-07
2.61183e-06
-4.63748e-07
2.70394e-06
-1.38006e-07
2.75317e-06
2.35786e-07
2.75331e-06
6.57698e-07
2.69846e-06
1.12513e-06
2.58339e-06
1.63202e-06
2.40409e-06
2.16841e-06
2.15821e-06
2.72073e-06
1.8455e-06
3.27252e-06
1.46797e-06
3.80663e-06
1.02992e-06
4.30733e-06
5.37735e-07
4.76195e-06
5.16218e-06
-6.32492e-09
4.0905e-08
-2.19351e-08
1.13176e-07
-4.77525e-08
2.05307e-07
-8.39665e-08
3.13453e-07
-1.30159e-07
4.26345e-07
-1.86165e-07
5.2439e-07
-2.5266e-07
5.87198e-07
-3.30677e-07
6.02499e-07
-4.20726e-07
5.67545e-07
-5.223e-07
4.85758e-07
-6.33693e-07
3.63053e-07
-7.51855e-07
2.05775e-07
-8.72288e-07
2.02953e-08
-9.89142e-07
-1.86676e-07
-1.09561e-06
-4.07859e-07
-1.18452e-06
-6.35545e-07
-1.24909e-06
-8.62016e-07
-1.28353e-06
-1.08008e-06
-1.28353e-06
-1.28353e-06
-1.24657e-06
-1.46751e-06
-1.17193e-06
-1.62864e-06
-1.06058e-06
-1.765e-06
-9.14871e-07
-1.87592e-06
-7.38204e-07
-1.96173e-06
-5.34681e-07
-2.02341e-06
-3.08776e-07
-2.06222e-06
-6.50798e-08
-2.07942e-06
1.91883e-07
-2.07596e-06
4.57754e-07
-2.05228e-06
7.28372e-07
-2.00811e-06
9.99738e-07
-1.94239e-06
1.26794e-06
-1.85317e-06
1.52902e-06
-1.73766e-06
1.77888e-06
-1.59223e-06
2.01308e-06
-1.41256e-06
2.22679e-06
-1.19386e-06
2.41461e-06
-9.31165e-07
2.57061e-06
-6.19752e-07
2.68834e-06
-2.55734e-07
2.76094e-06
1.63181e-07
2.78154e-06
6.37104e-07
2.74347e-06
1.16319e-06
2.64084e-06
1.73465e-06
2.46901e-06
2.34024e-06
2.22519e-06
2.96455e-06
1.90892e-06
3.58879e-06
1.5223e-06
4.19326e-06
1.07005e-06
4.75958e-06
5.59336e-07
5.27266e-06
5.72152e-06
-6.17268e-09
4.70777e-08
-2.13583e-08
1.28362e-07
-4.64749e-08
2.30424e-07
-8.1717e-08
3.48695e-07
-1.26727e-07
4.71355e-07
-1.81494e-07
5.79157e-07
-2.46928e-07
6.52632e-07
-3.24373e-07
6.79944e-07
-4.14749e-07
6.5792e-07
-5.1808e-07
5.8909e-07
-6.33351e-07
4.78324e-07
-7.58381e-07
3.30805e-07
-8.89643e-07
1.51557e-07
-1.02217e-06
-5.41445e-08
-1.14972e-06
-2.80309e-07
-1.26517e-06
-5.20101e-07
-1.36111e-06
-7.66075e-07
-1.43055e-06
-1.01064e-06
-1.46751e-06
-1.24657e-06
-1.46751e-06
-1.46751e-06
-1.42784e-06
-1.66831e-06
-1.34764e-06
-1.8452e-06
-1.22779e-06
-1.99578e-06
-1.07063e-06
-2.11889e-06
-8.79686e-07
-2.21435e-06
-6.59281e-07
-2.28262e-06
-4.14233e-07
-2.32446e-06
-1.49579e-07
-2.34061e-06
1.29615e-07
-2.33147e-06
4.18371e-07
-2.29687e-06
7.11839e-07
-2.23586e-06
1.00527e-06
-2.1466e-06
1.29394e-06
-2.02633e-06
1.57301e-06
-1.87131e-06
1.83745e-06
-1.67699e-06
2.0818e-06
-1.43821e-06
2.30014e-06
-1.14951e-06
2.48598e-06
-8.05594e-07
2.63227e-06
-4.02027e-07
2.73151e-06
6.39473e-08
2.77606e-06
5.92553e-07
2.75852e-06
1.18073e-06
2.67221e-06
1.82096e-06
2.51181e-06
2.50064e-06
2.27399e-06
3.20236e-06
1.95801e-06
3.90477e-06
1.56601e-06
4.58526e-06
1.10314e-06
5.22245e-06
5.774e-07
5.7984e-06
6.29892e-06
-5.97159e-09
5.30493e-08
-2.06207e-08
1.43011e-07
-4.48612e-08
2.54664e-07
-7.89041e-08
3.82738e-07
-1.22463e-07
5.14914e-07
-1.75672e-07
6.32366e-07
-2.39636e-07
7.16596e-07
-3.15948e-07
7.56256e-07
-4.05869e-07
7.47841e-07
-5.0986e-07
6.93081e-07
-6.27474e-07
5.95938e-07
-7.57277e-07
4.60608e-07
-8.96668e-07
2.90948e-07
-1.04167e-06
9.08596e-08
-1.18689e-06
-1.35092e-07
-1.32568e-06
-3.81307e-07
-1.45061e-06
-6.41148e-07
-1.55401e-06
-9.07238e-07
-1.62864e-06
-1.17193e-06
-1.66831e-06
-1.42784e-06
-1.66831e-06
-1.66831e-06
-1.62574e-06
-1.88777e-06
-1.53957e-06
-2.08194e-06
-1.4106e-06
-2.24786e-06
-1.24121e-06
-2.38374e-06
-1.03505e-06
-2.48878e-06
-7.96717e-07
-2.5628e-06
-5.31429e-07
-2.6059e-06
-2.44741e-07
-2.61816e-06
5.76524e-08
-2.59926e-06
3.7005e-07
-2.54825e-06
6.86791e-07
-2.46335e-06
1.00224e-06
-2.34178e-06
1.31071e-06
-2.17978e-06
1.60634e-06
-1.97262e-06
1.88297e-06
-1.71484e-06
2.13399e-06
-1.40053e-06
2.35226e-06
-1.02387e-06
2.5301e-06
-5.7986e-07
2.65929e-06
-6.52477e-08
2.73145e-06
5.20389e-07
2.73839e-06
1.1738e-06
2.6726e-06
1.88675e-06
2.52799e-06
2.64525e-06
2.30064e-06
3.42971e-06
1.98943e-06
4.21599e-06
1.59648e-06
4.97821e-06
1.12737e-06
5.69156e-06
5.90982e-07
6.33478e-06
6.8899e-06
-5.74734e-09
5.87966e-08
-1.98079e-08
1.57071e-07
-4.30875e-08
2.77944e-07
-7.58153e-08
4.15466e-07
-1.17776e-07
5.56875e-07
-1.69229e-07
6.83819e-07
-2.31433e-07
7.788e-07
-3.06184e-07
8.31007e-07
-3.95024e-07
8.36681e-07
-4.98781e-07
7.96839e-07
-6.17475e-07
7.14632e-07
-7.50295e-07
5.93427e-07
-8.95457e-07
4.3611e-07
-1.04997e-06
2.45369e-07
-1.20942e-06
2.43601e-08
-1.36799e-06
-2.22736e-07
-1.51866e-06
-4.90478e-07
-1.65365e-06
-7.72248e-07
-1.765e-06
-1.06058e-06
-1.8452e-06
-1.34764e-06
-1.88777e-06
-1.62574e-06
-1.88777e-06
-1.88777e-06
-1.84207e-06
-2.12764e-06
-1.7495e-06
-2.34043e-06
-1.61077e-06
-2.52247e-06
-1.4283e-06
-2.67124e-06
-1.20595e-06
-2.78515e-06
-9.48617e-07
-2.86323e-06
-6.62001e-07
-2.90478e-06
-3.52262e-07
-2.909e-06
-2.58299e-08
-2.87469e-06
3.10748e-07
-2.79992e-06
6.50862e-07
-2.68189e-06
9.87833e-07
-2.51675e-06
1.31484e-06
-2.29963e-06
1.62483e-06
-2.02482e-06
1.91034e-06
-1.68604e-06
2.16348e-06
-1.277e-06
2.37578e-06
-7.92165e-07
2.53832e-06
-2.27782e-07
2.64187e-06
4.16833e-07
2.67743e-06
1.13824e-06
2.63664e-06
1.92754e-06
2.51261e-06
2.76928e-06
2.30071e-06
3.64161e-06
1.99939e-06
4.51731e-06
1.61071e-06
5.36688e-06
1.14064e-06
6.16164e-06
5.9899e-07
6.87643e-06
7.48889e-06
-5.51788e-09
6.43145e-08
-1.898e-08
1.70533e-07
-4.1278e-08
3.00242e-07
-7.2655e-08
4.46843e-07
-1.12958e-07
5.97178e-07
-1.62549e-07
7.33411e-07
-2.22804e-07
8.39055e-07
-2.95672e-07
9.03875e-07
-3.82932e-07
9.23941e-07
-4.85726e-07
8.99633e-07
-6.04462e-07
8.33368e-07
-7.38837e-07
7.27803e-07
-8.87763e-07
5.85036e-07
-1.04914e-06
4.06743e-07
-1.21958e-06
1.94802e-07
-1.39426e-06
-4.8053e-08
-1.56694e-06
-3.17797e-07
-1.73021e-06
-6.08981e-07
-1.87592e-06
-9.14871e-07
-1.99578e-06
-1.22779e-06
-2.08194e-06
-1.53957e-06
-2.12764e-06
-1.84207e-06
-2.12764e-06
-2.12764e-06
-2.07858e-06
-2.38949e-06
-1.97913e-06
-2.62193e-06
-1.82995e-06
-2.82042e-06
-1.63355e-06
-2.98156e-06
-1.39399e-06
-3.10279e-06
-1.11661e-06
-3.18217e-06
-8.07626e-07
-3.21798e-06
-4.73935e-07
-3.20838e-06
-1.22821e-07
-3.15104e-06
2.38173e-07
-3.04289e-06
6.01328e-07
-2.8799e-06
9.58744e-07
-2.65705e-06
1.30229e-06
-2.36837e-06
1.62353e-06
-2.00728e-06
1.91358e-06
-1.56705e-06
2.1631e-06
-1.04169e-06
2.36231e-06
-4.26987e-07
2.50111e-06
2.78031e-07
2.56961e-06
1.06974e-06
2.55858e-06
1.93857e-06
2.46027e-06
2.86759e-06
2.26933e-06
3.83255e-06
1.98371e-06
4.80293e-06
1.60536e-06
5.74524e-06
1.14059e-06
6.6264e-06
6.00185e-07
7.41684e-06
8.08908e-06
-5.29417e-09
6.96087e-08
-1.81734e-08
1.83413e-07
-3.95092e-08
3.21577e-07
-6.95511e-08
4.76885e-07
-1.08195e-07
6.35822e-07
-1.55883e-07
7.81099e-07
-2.14069e-07
8.9724e-07
-2.84816e-07
9.74622e-07
-3.70095e-07
1.00922e-06
-4.71321e-07
1.00086e-06
-5.89235e-07
9.51281e-07
-7.23951e-07
8.62519e-07
-8.74949e-07
7.36034e-07
-1.0409e-06
5.72693e-07
-1.21939e-06
3.73289e-07
-1.40665e-06
1.39206e-07
-1.59743e-06
-1.27014e-07
-1.78507e-06
-4.21343e-07
-1.96173e-06
-7.38204e-07
-2.11889e-06
-1.07063e-06
-2.24786e-06
-1.4106e-06
-2.34043e-06
-1.7495e-06
-2.38949e-06
-2.07858e-06
-2.38949e-06
-2.38949e-06
-2.33683e-06
-2.67459e-06
-2.23001e-06
-2.92724e-06
-2.06967e-06
-3.14189e-06
-1.85845e-06
-3.31401e-06
-1.6007e-06
-3.43991e-06
-1.30224e-06
-3.51644e-06
-9.69959e-07
-3.54065e-06
-6.11594e-07
-3.5094e-06
-2.35437e-07
-3.41904e-06
1.49806e-07
-3.26514e-06
5.35122e-07
-3.04236e-06
9.11203e-07
-2.74445e-06
1.26842e-06
-2.3645e-06
1.59679e-06
-1.89541e-06
1.88587e-06
-1.33078e-06
2.12488e-06
-6.65997e-07
2.30275e-06