/*--------------------------------*- C++ -*----------------------------------*\
| =========                 |                                                 |
| \\      /  F ield         | OpenFOAM: The Open Source CFD Toolbox           |
|  \\    /   O peration     | Version:  v1912                                 |
|   \\  /    A nd           | Website:  www.openfoam.com                      |
|    \\/     M anipulation  |                                                 |
\*---------------------------------------------------------------------------*/
FoamFile
{
    version     2.0;
    format      ascii;
    class       volSymmTensorField;
    location    "4000";
    object      turbulenceProperties:R;
}
// * * * * * * * * * * * * * * * * * * * * * * * * * * * * * * * * * * * * * //

dimensions      [0 2 -2 0 0 0 0];


internalField   nonuniform List<symmTensor> 
2500
(
(0.000833153 -3.45304e-05 -3.45304e-05 0.000833154 1.52946e-09 0.000833154)
(0.000890206 -2.60346e-05 -8.27011e-05 0.00089021 -4.44551e-10 0.000890204)
(0.00102293 -2.41198e-05 -0.000131026 0.00102294 3.34075e-09 0.00102292)
(0.0012296 -2.38538e-05 -0.000186697 0.00122963 1.55593e-08 0.00122959)
(0.00150054 -2.43454e-05 -0.000252531 0.00150058 4.3346e-08 0.00150052)
(0.00182336 -2.50423e-05 -0.000328874 0.00182342 9.22366e-08 0.00182333)
(0.00218576 -2.56209e-05 -0.000414842 0.00218583 1.58228e-07 0.00218575)
(0.00257678 -2.59171e-05 -0.00050903 0.00257683 2.23215e-07 0.00257681)
(0.00298722 -2.5871e-05 -0.000609879 0.00298724 2.57621e-07 0.00298732)
(0.00340961 -2.54904e-05 -0.000715851 0.00340957 2.2881e-07 0.00340981)
(0.00383799 -2.48182e-05 -0.000825533 0.00383789 1.0972e-07 0.00383832)
(0.00426771 -2.39145e-05 -0.000937673 0.00426755 -1.1566e-07 0.00426816)
(0.00469522 -2.28453e-05 -0.00105122 0.00469502 -4.50748e-07 0.00469582)
(0.00511797 -2.16721e-05 -0.00116531 0.00511773 -8.88007e-07 0.0051187)
(0.00553419 -2.04481e-05 -0.00127929 0.00553392 -1.41238e-06 0.00553505)
(0.00594278 -1.92136e-05 -0.00139268 0.00594251 -2.00501e-06 0.00594377)
(0.00634318 -1.79986e-05 -0.00150513 0.00634291 -2.64643e-06 0.00634429)
(0.00673514 -1.68245e-05 -0.00161641 0.00673488 -3.31885e-06 0.00673638)
(0.00711876 -1.57049e-05 -0.00172641 0.00711851 -4.00738e-06 0.00712013)
(0.00749424 -1.46438e-05 -0.00183506 0.00749401 -4.70058e-06 0.00749575)
(0.00786179 -1.3644e-05 -0.00194229 0.00786157 -5.39009e-06 0.00786344)
(0.00822173 -1.27054e-05 -0.00204811 0.00822153 -6.0706e-06 0.00822353)
(0.00857441 -1.18248e-05 -0.00215249 0.00857423 -6.73885e-06 0.00857636)
(0.00891995 -1.09995e-05 -0.00225545 0.00891978 -7.39328e-06 0.00892207)
(0.00925862 -1.02255e-05 -0.00235695 0.00925847 -8.0333e-06 0.00926091)
(0.00959049 -9.49933e-06 -0.00245697 0.00959035 -8.65869e-06 0.00959295)
(0.0099157 -8.81712e-06 -0.00255547 0.00991557 -9.26927e-06 0.00991833)
(0.0102342 -8.1749e-06 -0.00265241 0.010234 -9.8644e-06 0.010237)
(0.0105459 -7.57042e-06 -0.00274769 0.0105458 -1.04426e-05 0.0105489)
(0.0108508 -7.0014e-06 -0.00284127 0.0108507 -1.10015e-05 0.010854)
(0.0111485 -6.46395e-06 -0.00293301 0.0111484 -1.15372e-05 0.0111519)
(0.011439 -5.95687e-06 -0.00302286 0.0114389 -1.20444e-05 0.0114425)
(0.0117218 -5.47783e-06 -0.00311063 0.0117218 -1.25157e-05 0.0117256)
(0.0119968 -5.02449e-06 -0.00319621 0.0119967 -1.2942e-05 0.0120007)
(0.0122633 -4.59536e-06 -0.00327942 0.0122633 -1.3312e-05 0.0122674)
(0.0125211 -4.18898e-06 -0.00336008 0.0125211 -1.3612e-05 0.0125254)
(0.0127695 -3.80409e-06 -0.003438 0.0127695 -1.38261e-05 0.012774)
(0.013008 -3.43882e-06 -0.00351301 0.013008 -1.39368e-05 0.0130126)
(0.0132358 -3.09261e-06 -0.00358484 0.0132359 -1.39247e-05 0.0132407)
(0.0134525 -2.76434e-06 -0.00365324 0.0134525 -1.37689e-05 0.0134575)
(0.0136569 -2.4525e-06 -0.00371794 0.013657 -1.34479e-05 0.0136621)
(0.0138485 -2.15631e-06 -0.00377863 0.0138486 -1.2941e-05 0.0138538)
(0.0140263 -1.87443e-06 -0.00383503 0.0140264 -1.22298e-05 0.0140317)
(0.0141891 -1.60596e-06 -0.00388675 0.0141892 -1.12996e-05 0.0141947)
(0.0143357 -1.34874e-06 -0.00393341 0.0143358 -1.01423e-05 0.0143414)
(0.0144648 -1.10039e-06 -0.00397453 0.0144649 -8.75529e-06 0.0144706)
(0.0145744 -8.58269e-07 -0.00400947 0.0145745 -7.14656e-06 0.0145803)
(0.0146622 -6.18404e-07 -0.00403747 0.0146623 -5.32707e-06 0.0146681)
(0.0147252 -3.7624e-07 -0.00405759 0.0147253 -3.31764e-06 0.0147312)
(0.0147593 -1.26973e-07 -0.00406846 0.0147594 -1.13499e-06 0.0147653)
(0.000890206 -8.27011e-05 -2.60346e-05 0.000890204 -4.44552e-10 0.00089021)
(0.000804835 -6.72073e-05 -6.72073e-05 0.000804833 -9.87259e-09 0.000804833)
(0.000821541 -6.11476e-05 -0.000106082 0.000821554 -1.57598e-08 0.000821525)
(0.000912822 -5.76169e-05 -0.000146916 0.000912853 -1.88436e-08 0.000912784)
(0.00106038 -5.60687e-05 -0.000193529 0.00106044 -1.68577e-08 0.00106032)
(0.00124972 -5.55749e-05 -0.000247441 0.0012498 -8.50726e-09 0.00124964)
(0.00146904 -5.53486e-05 -0.000308375 0.00146912 1.17331e-09 0.00146896)
(0.00170888 -5.4903e-05 -0.000375229 0.00170892 -1.20401e-09 0.00170883)
(0.00196179 -5.40077e-05 -0.000446677 0.00196176 -3.39421e-08 0.00196181)
(0.00222207 -5.26034e-05 -0.000521433 0.00222194 -1.14008e-07 0.00222218)
(0.0024854 -5.07361e-05 -0.000598356 0.00248516 -2.52765e-07 0.00248561)
(0.00274855 -4.85025e-05 -0.000676497 0.0027482 -4.5458e-07 0.00274885)
(0.00300922 -4.60155e-05 -0.000755092 0.00300879 -7.17412e-07 0.00300959)
(0.00326584 -4.33854e-05 -0.000833562 0.00326535 -1.03444e-06 0.00326625)
(0.00351742 -4.07086e-05 -0.000911487 0.00351689 -1.396e-06 0.00351785)
(0.00376343 -3.80585e-05 -0.000988586 0.00376289 -1.79134e-06 0.00376385)
(0.00400368 -3.54873e-05 -0.00106468 0.00400315 -2.21e-06 0.00400407)
(0.0042382 -3.30313e-05 -0.00113968 0.00423769 -2.64262e-06 0.00423853)
(0.00446717 -3.07086e-05 -0.00121356 0.00446669 -3.08154e-06 0.00446744)
(0.00469086 -2.85274e-05 -0.00128629 0.00469041 -3.5208e-06 0.00469105)
(0.00490954 -2.64879e-05 -0.00135792 0.00490913 -3.95614e-06 0.00490965)
(0.00512351 -2.45854e-05 -0.00142847 0.00512313 -4.38481e-06 0.00512353)
(0.00533304 -2.2812e-05 -0.00149796 0.00533269 -4.80506e-06 0.00533297)
(0.00553835 -2.11595e-05 -0.00156643 0.00553803 -5.21618e-06 0.00553818)
(0.00573961 -1.9618e-05 -0.00163389 0.00573932 -5.61775e-06 0.00573935)
(0.00593698 -1.81784e-05 -0.00170034 0.00593672 -6.00964e-06 0.00593662)
(0.00613054 -1.68329e-05 -0.0017658 0.0061303 -6.39177e-06 0.00613007)
(0.00632033 -1.55734e-05 -0.00183023 0.00632012 -6.76373e-06 0.00631975)
(0.00650637 -1.4393e-05 -0.00189361 0.00650617 -7.1246e-06 0.00650568)
(0.0066886 -1.3285e-05 -0.00195589 0.00668842 -7.47284e-06 0.00668779)
(0.00686696 -1.22439e-05 -0.00201704 0.00686681 -7.80604e-06 0.00686603)
(0.00704133 -1.1265e-05 -0.00207699 0.0070412 -8.12085e-06 0.00704027)
(0.0072115 -1.03432e-05 -0.00213563 0.00721139 -8.41275e-06 0.00721031)
(0.00737734 -9.47395e-06 -0.00219293 0.00737725 -8.67593e-06 0.00737602)
(0.00753858 -8.65259e-06 -0.00224875 0.00753851 -8.90314e-06 0.00753712)
(0.00769488 -7.87723e-06 -0.00230297 0.00769484 -9.08566e-06 0.00769328)
(0.00784592 -7.14641e-06 -0.00235545 0.0078459 -9.2132e-06 0.00784417)
(0.00799143 -6.45472e-06 -0.00240609 0.00799144 -9.27441e-06 0.00798953)
(0.0081308 -5.79912e-06 -0.0024547 0.00813084 -9.25647e-06 0.00812876)
(0.00826371 -5.17891e-06 -0.00250106 0.00826378 -9.14564e-06 0.00826152)
(0.00838955 -4.59011e-06 -0.00254505 0.00838965 -8.92783e-06 0.00838721)
(0.00850778 -4.03368e-06 -0.00258643 0.00850791 -8.58904e-06 0.0085053)
(0.00861775 -3.5049e-06 -0.00262494 0.00861791 -8.11675e-06 0.00861514)
(0.00871865 -3.00049e-06 -0.00266031 0.00871884 -7.50068e-06 0.00871591)
(0.00880982 -2.51992e-06 -0.00269229 0.00881003 -6.73488e-06 0.00880696)
(0.00889018 -2.05589e-06 -0.0027205 0.00889041 -5.81686e-06 0.00888721)
(0.00895854 -1.60299e-06 -0.0027445 0.00895878 -4.75081e-06 0.00895548)
(0.00901335 -1.15474e-06 -0.00276377 0.00901362 -3.54349e-06 0.00901023)
(0.0090527 -7.02481e-07 -0.00277761 0.00905297 -2.20804e-06 0.00904953)
(0.00907398 -2.36783e-07 -0.00278509 0.00907425 -7.55503e-07 0.00907078)
(0.00102293 -0.000131026 -2.41198e-05 0.00102292 3.34075e-09 0.00102294)
(0.000821541 -0.000106082 -6.11476e-05 0.000821525 -1.57598e-08 0.000821554)
(0.000755599 -9.78942e-05 -9.78942e-05 0.0007556 -2.90859e-08 0.0007556)
(0.000780832 -9.29623e-05 -0.000137166 0.000780852 -3.93329e-08 0.000780815)
(0.000869832 -9.03697e-05 -0.000181564 0.000869872 -4.47522e-08 0.000869796)
(0.0010042 -8.9344e-05 -0.000233148 0.00100425 -4.61068e-08 0.00100415)
(0.00117069 -8.89138e-05 -0.000292294 0.00117073 -5.26849e-08 0.00117068)
(0.00135941 -8.83027e-05 -0.000358132 0.00135938 -8.19646e-08 0.00135947)
(0.00156279 -8.70673e-05 -0.000429272 0.00156265 -1.52975e-07 0.00156297)
(0.00177506 -8.50443e-05 -0.000504254 0.00177478 -2.7859e-07 0.00177539)
(0.00199186 -8.22612e-05 -0.000581756 0.00199142 -4.62922e-07 0.00199234)
(0.00220994 -7.88488e-05 -0.000660672 0.00220936 -7.02872e-07 0.00221055)
(0.00242701 -7.49822e-05 -0.000740137 0.00242631 -9.91021e-07 0.00242772)
(0.00264149 -7.0842e-05 -0.000819512 0.0026407 -1.3182e-06 0.00264225)
(0.00285242 -6.65854e-05 -0.000898356 0.00285158 -1.67526e-06 0.00285318)
(0.00305926 -6.23363e-05 -0.000976358 0.00305841 -2.05387e-06 0.00305999)
(0.00326184 -5.81938e-05 -0.0010534 0.003261 -2.44688e-06 0.0032625)
(0.00346019 -5.42228e-05 -0.00112937 0.00345938 -2.84833e-06 0.00346075)
(0.00365447 -5.04479e-05 -0.00120427 0.00365371 -3.25349e-06 0.00365492)
(0.00384494 -4.689e-05 -0.00127815 0.00384424 -3.65864e-06 0.00384526)
(0.00403188 -4.35595e-05 -0.00135102 0.00403123 -4.06108e-06 0.00403205)
(0.00421554 -4.04513e-05 -0.00142298 0.00421494 -4.45894e-06 0.00421556)
(0.00439617 -3.7548e-05 -0.00149404 0.00439562 -4.85097e-06 0.00439604)
(0.00457398 -3.48355e-05 -0.00156427 0.00457348 -5.23647e-06 0.0045737)
(0.00474915 -3.23072e-05 -0.00163367 0.00474869 -5.61492e-06 0.00474871)
(0.00492178 -2.99488e-05 -0.0017023 0.00492137 -5.98618e-06 0.00492119)
(0.00509198 -2.77413e-05 -0.00177012 0.0050916 -6.34978e-06 0.00509122)
(0.00525977 -2.56716e-05 -0.00183718 0.00525942 -6.70523e-06 0.00525885)
(0.00542515 -2.37304e-05 -0.00190339 0.00542483 -7.05145e-06 0.00542406)
(0.00558808 -2.19118e-05 -0.00196877 0.0055878 -7.38692e-06 0.00558682)
(0.00574846 -2.02045e-05 -0.00203325 0.00574821 -7.70924e-06 0.00574703)
(0.00590617 -1.85919e-05 -0.00209675 0.00590596 -8.01522e-06 0.00590457)
(0.00606104 -1.70755e-05 -0.0021592 0.00606086 -8.30029e-06 0.00605926)
(0.00621284 -1.56491e-05 -0.00222049 0.00621269 -8.55898e-06 0.00621087)
(0.0063613 -1.42988e-05 -0.00228049 0.00636119 -8.78412e-06 0.00635915)
(0.0065061 -1.3022e-05 -0.00233908 0.00650604 -8.96712e-06 0.00650376)
(0.00664687 -1.18162e-05 -0.00239608 0.00664685 -9.09795e-06 0.00664434)
(0.00678323 -1.06771e-05 -0.00245134 0.00678326 -9.16503e-06 0.00678051)
(0.00691462 -9.59649e-06 -0.00250462 0.00691468 -9.15555e-06 0.0069117)
(0.0070406 -8.57284e-06 -0.00255575 0.00704071 -9.05558e-06 0.00703749)
(0.00716051 -7.60505e-06 -0.00260443 0.00716068 -8.85055e-06 0.00715721)
(0.00727368 -6.68509e-06 -0.00265043 0.0072739 -8.52603e-06 0.00727021)
(0.00737946 -5.80929e-06 -0.00269341 0.00737973 -8.06877e-06 0.00737581)
(0.00747696 -4.97632e-06 -0.00273307 0.00747728 -7.46763e-06 0.00747316)
(0.00756533 -4.17948e-06 -0.00276903 0.00756569 -6.71553e-06 0.00756138)
(0.0076435 -3.41056e-06 -0.0028008 0.00764389 -5.80905e-06 0.00763941)
(0.00771012 -2.66097e-06 -0.00282794 0.00771055 -4.75134e-06 0.00770593)
(0.00776375 -1.91712e-06 -0.00284973 0.00776419 -3.54853e-06 0.00775947)
(0.00780223 -1.16568e-06 -0.0028654 0.00780268 -2.21314e-06 0.00779789)
(0.0078231 -3.93341e-07 -0.00287392 0.00782356 -7.5736e-07 0.00781874)
(0.0012296 -0.000186697 -2.38538e-05 0.00122959 1.55593e-08 0.00122963)
(0.000912822 -0.000146916 -5.76169e-05 0.000912784 -1.88436e-08 0.000912853)
(0.000780832 -0.000137166 -9.29623e-05 0.000780815 -3.9333e-08 0.000780852)
(0.000769613 -0.00013593 -0.00013593 0.000769614 -5.34816e-08 0.000769614)
(0.000840081 -0.0001383 -0.000188359 0.000840095 -5.76747e-08 0.000840065)
(0.000967356 -0.000141814 -0.000250891 0.000967361 -5.07177e-08 0.000967344)
(0.00113469 -0.000145064 -0.000323331 0.00113464 -5.00246e-08 0.00113473)
(0.00133007 -0.000147107 -0.000404481 0.00132989 -8.91321e-08 0.00133021)
(0.00154446 -0.000147424 -0.000492529 0.00154409 -1.98639e-07 0.00154476)
(0.00177097 -0.000145872 -0.000585542 0.00177036 -3.91556e-07 0.00177145)
(0.00200431 -0.000142583 -0.00068174 0.00200346 -6.63372e-07 0.00200496)
(0.00224055 -0.000137852 -0.000779655 0.00223948 -9.99262e-07 0.00224133)
(0.00247684 -0.00013204 -0.000878148 0.00247559 -1.38141e-06 0.00247769)
(0.00271124 -0.000125505 -0.000976386 0.00270986 -1.7939e-06 0.00271208)
(0.00294252 -0.000118552 -0.00107381 0.00294108 -2.2248e-06 0.00294329)
(0.00317003 -0.000111458 -0.0011701 0.00316857 -2.66617e-06 0.00317067)
(0.00339346 -0.00010442 -0.00126509 0.00339203 -3.11311e-06 0.00339393)
(0.00361284 -9.75558e-05 -0.00135872 0.00361146 -3.56262e-06 0.00361308)
(0.00382831 -9.09856e-05 -0.00145095 0.003827 -4.01268e-06 0.00382831)
(0.00404012 -8.47427e-05 -0.00154192 0.0040389 -4.46186e-06 0.00403987)
(0.00424856 -7.88505e-05 -0.00163166 0.00424743 -4.90896e-06 0.00424805)
(0.00445393 -7.33112e-05 -0.00172027 0.00445289 -5.35284e-06 0.00445316)
(0.00465647 -6.81151e-05 -0.00180784 0.00465552 -5.79271e-06 0.00465545)
(0.00485642 -6.32547e-05 -0.00189444 0.00485554 -6.22777e-06 0.00485516)
(0.00505395 -5.86953e-05 -0.00198011 0.00505315 -6.65731e-06 0.00505245)
(0.00524918 -5.44289e-05 -0.0020649 0.00524845 -7.08065e-06 0.00524746)
(0.00544222 -5.04363e-05 -0.00214882 0.00544155 -7.4971e-06 0.00544027)
(0.00563308 -4.66837e-05 -0.00223184 0.00563247 -7.90553e-06 0.00563093)
(0.00582175 -4.31616e-05 -0.00231401 0.0058212 -8.30465e-06 0.00581939)
(0.00600816 -3.98568e-05 -0.00239522 0.00600767 -8.69219e-06 0.00600561)
(0.0061922 -3.67397e-05 -0.00247544 0.00619176 -9.06569e-06 0.00618946)
(0.00637369 -3.38101e-05 -0.00255457 0.00637332 -9.4208e-06 0.00637077)
(0.00655243 -3.10501e-05 -0.00263257 0.00655211 -9.7528e-06 0.00654933)
(0.00672811 -2.84409e-05 -0.00270922 0.00672786 -1.00548e-05 0.00672483)
(0.00690041 -2.5981e-05 -0.00278442 0.00690023 -1.0319e-05 0.00689696)
(0.00706898 -2.36548e-05 -0.00285798 0.00706887 -1.05354e-05 0.00706535)
(0.00723321 -2.14571e-05 -0.00292969 0.00723317 -1.06919e-05 0.00722941)
(0.00739271 -1.93784e-05 -0.0029993 0.00739275 -1.0775e-05 0.00738874)
(0.00754687 -1.74114e-05 -0.00306657 0.007547 -1.07697e-05 0.00754273)
(0.00769496 -1.55483e-05 -0.00313121 0.00769518 -1.06591e-05 0.00769066)
(0.00783618 -1.3781e-05 -0.00319285 0.0078365 -1.04261e-05 0.00783172)
(0.00796987 -1.21105e-05 -0.00325118 0.00797028 -1.00529e-05 0.00796525)
(0.00809495 -1.05236e-05 -0.00330574 0.00809545 -9.52326e-06 0.00809019)
(0.0082105 -9.01177e-06 -0.00335616 0.00821109 -8.82357e-06 0.00820561)
(0.00831532 -7.56443e-06 -0.00340191 0.00831598 -7.94411e-06 0.00831031)
(0.00840819 -6.17107e-06 -0.00344244 0.00840892 -6.88009e-06 0.00840308)
(0.0084874 -4.81398e-06 -0.00347701 0.00848819 -5.63379e-06 0.00848221)
(0.00855114 -3.46817e-06 -0.00350482 0.00855196 -4.21208e-06 0.00854589)
(0.00859702 -2.11113e-06 -0.00352483 0.00859786 -2.62872e-06 0.00859172)
(0.00862188 -7.13231e-07 -0.00353571 0.00862274 -8.99488e-07 0.00861658)
(0.00150054 -0.000252531 -2.43454e-05 0.00150052 4.3346e-08 0.00150058)
(0.00106038 -0.000193529 -5.60687e-05 0.00106032 -1.68577e-08 0.00106044)
(0.000869832 -0.000181564 -9.03697e-05 0.000869796 -4.47522e-08 0.000869872)
(0.000840081 -0.000188359 -0.0001383 0.000840065 -5.76747e-08 0.000840095)
(0.000917304 -0.000204112 -0.000204112 0.000917298 -4.78875e-08 0.000917298)
(0.00106732 -0.000221299 -0.000287008 0.00106728 -9.42478e-10 0.00106734)
(0.00126748 -0.000235978 -0.000384434 0.0012673 6.35419e-08 0.0012676)
(0.00150202 -0.00024644 -0.000493412 0.00150156 8.0868e-08 0.00150234)
(0.0017594 -0.00025215 -0.000610856 0.00175858 -1.28206e-08 0.00176)
(0.00203098 -0.000253255 -0.000733905 0.00202975 -2.40761e-07 0.00203189)
(0.00231028 -0.000250311 -0.000860117 0.00230865 -5.88632e-07 0.00231149)
(0.00259255 -0.00024407 -0.000987547 0.00259058 -1.024e-06 0.00259401)
(0.00287442 -0.000235313 -0.00111477 0.00287217 -1.51227e-06 0.00287603)
(0.0031536 -0.000224809 -0.00124081 0.00315118 -2.02578e-06 0.0031553)
(0.00342872 -0.000213229 -0.00136506 0.0034262 -2.5468e-06 0.00343042)
(0.00369902 -0.0002011 -0.0014872 0.00369649 -3.06657e-06 0.00370065)
(0.00396422 -0.000188843 -0.00160703 0.00396174 -3.58245e-06 0.00396572)
(0.00422436 -0.000176738 -0.00172466 0.00422197 -4.09508e-06 0.00422569)
(0.00447965 -0.000165006 -0.00184016 0.00447738 -4.60606e-06 0.0044808)
(0.00473042 -0.000153772 -0.00195358 0.00472829 -5.11692e-06 0.00473138)
(0.00497701 -0.000143093 -0.00206517 0.00497503 -5.62835e-06 0.00497778)
(0.00521979 -0.000133017 -0.00217498 0.00521797 -6.14033e-06 0.0052204)
(0.00545908 -0.00012353 -0.00228325 0.00545741 -6.65214e-06 0.00545955)
(0.00569516 -0.000114615 -0.00239003 0.00569363 -7.16269e-06 0.00569551)
(0.00592826 -0.00010626 -0.00249544 0.00592686 -7.67047e-06 0.0059285)
(0.00615854 -9.84261e-05 -0.00259954 0.00615725 -8.17409e-06 0.00615871)
(0.00638609 -9.10696e-05 -0.00270238 0.00638493 -8.67164e-06 0.00638622)
(0.00661099 -8.41765e-05 -0.00280397 0.00660993 -9.16127e-06 0.00661109)
(0.00683322 -7.77035e-05 -0.00290433 0.00683226 -9.64062e-06 0.00683332)
(0.00705272 -7.16276e-05 -0.0030034 0.00705186 -1.01068e-05 0.00705282)
(0.00726934 -6.59215e-05 -0.0031011 0.00726858 -1.05561e-05 0.00726947)
(0.0074829 -6.05515e-05 -0.0031974 0.00748224 -1.09837e-05 0.00748306)
(0.00769318 -5.55039e-05 -0.00329216 0.00769263 -1.13841e-05 0.00769339)
(0.00789986 -5.07495e-05 -0.00338525 0.00789942 -1.17489e-05 0.00790011)
(0.00810247 -4.62699e-05 -0.00347649 0.00810215 -1.2069e-05 0.00810277)
(0.00830068 -4.20498e-05 -0.00356565 0.00830049 -1.2333e-05 0.00830103)
(0.00849376 -3.80648e-05 -0.00365252 0.0084937 -1.25266e-05 0.00849414)
(0.0086813 -3.43096e-05 -0.00373676 0.00868139 -1.26344e-05 0.00868172)
(0.00886244 -3.07679e-05 -0.00381817 0.00886268 -1.26385e-05 0.00886288)
(0.00903644 -2.74237e-05 -0.00389631 0.00903685 -1.25192e-05 0.00903691)
(0.00920245 -2.42706e-05 -0.00397083 0.00920302 -1.22559e-05 0.00920293)
(0.00935952 -2.12862e-05 -0.00404129 0.00936026 -1.18277e-05 0.00936002)
(0.00950647 -1.84632e-05 -0.00410722 0.00950736 -1.12155e-05 0.00950697)
(0.00964221 -1.57904e-05 -0.00416806 0.00964326 -1.04017e-05 0.00964272)
(0.00976536 -1.32413e-05 -0.00422322 0.00976655 -9.37426e-06 0.00976588)
(0.00987439 -1.07897e-05 -0.00427213 0.00987569 -8.12704e-06 0.00987492)
(0.00996741 -8.40759e-06 -0.00431381 0.00996882 -6.66138e-06 0.00996797)
(0.0100423 -6.05369e-06 -0.00434733 0.0100437 -4.98491e-06 0.0100428)
(0.010096 -3.68166e-06 -0.00437142 0.0100975 -3.11284e-06 0.0100966)
(0.0101252 -1.24347e-06 -0.0043845 0.0101268 -1.06507e-06 0.0101258)
(0.00182336 -0.000328874 -2.50423e-05 0.00182333 9.22366e-08 0.00182342)
(0.00124972 -0.000247441 -5.55749e-05 0.00124964 -8.50726e-09 0.0012498)
(0.0010042 -0.000233148 -8.9344e-05 0.00100415 -4.61068e-08 0.00100425)
(0.000967356 -0.000250891 -0.000141814 0.000967344 -5.07177e-08 0.000967361)
(0.00106732 -0.000287008 -0.000221299 0.00106734 -9.42478e-10 0.00106728)
(0.00125766 -0.000327232 -0.000327232 0.00125764 1.52276e-07 0.00125764)
(0.00150756 -0.000362582 -0.000454289 0.00150731 4.07831e-07 0.00150775)
(0.00179611 -0.000389166 -0.000596484 0.00179538 6.61666e-07 0.00179675)
(0.0021087 -0.000406019 -0.000748536 0.00210731 7.84408e-07 0.00210997)
(0.00243492 -0.000413647 -0.000906157 0.00243282 7.14816e-07 0.0024369)
(0.00276735 -0.000413231 -0.00106599 0.00276458 4.61863e-07 0.00277002)
(0.00310077 -0.00040626 -0.00122564 0.00309744 6.92073e-08 0.00310406)
(0.00343163 -0.000394268 -0.00138346 0.00342788 -4.12469e-07 0.00343545)
(0.00375767 -0.000378658 -0.00153842 0.00375366 -9.41117e-07 0.00376191)
(0.0040776 -0.000360626 -0.00168991 0.00407344 -1.48935e-06 0.00408214)
(0.00439079 -0.000341148 -0.00183775 0.00438661 -2.04385e-06 0.00439555)
(0.00469712 -0.000321069 -0.00198191 0.00469302 -2.6011e-06 0.00470202)
(0.00499676 -0.000300958 -0.00212249 0.00499281 -3.16292e-06 0.00500175)
(0.00529009 -0.000281191 -0.00225979 0.00528633 -3.73279e-06 0.00529511)
(0.00557754 -0.000262087 -0.00239397 0.00557401 -4.31378e-06 0.00558258)
(0.00585961 -0.000243811 -0.00252534 0.00585632 -4.90717e-06 0.00586466)
(0.00613676 -0.000226445 -0.00265416 0.00613372 -5.51272e-06 0.00614182)
(0.0064094 -0.000210048 -0.0027806 0.00640659 -6.1285e-06 0.00641449)
(0.00667788 -0.000194605 -0.00290484 0.00667531 -6.75169e-06 0.00668301)
(0.00694252 -0.000180084 -0.00302714 0.00694017 -7.37872e-06 0.00694771)
(0.0072035 -0.000166465 -0.00314749 0.00720134 -8.00618e-06 0.00720876)
(0.00746107 -0.000153702 -0.00326603 0.00745911 -8.63036e-06 0.00746643)
(0.00771524 -0.000141731 -0.00338288 0.00771346 -9.24657e-06 0.00772071)
(0.00796601 -0.000130524 -0.00349798 0.0079644 -9.8516e-06 0.00797159)
(0.00821344 -0.000120008 -0.00361136 0.008212 -1.04412e-05 0.00821916)
(0.00845727 -0.000110145 -0.00372298 0.00845601 -1.10093e-05 0.00846312)
(0.00869751 -0.000100914 -0.00383273 0.00869641 -1.1551e-05 0.00870348)
(0.00893367 -9.22463e-05 -0.00394058 0.00893276 -1.20593e-05 0.00893977)
(0.00916564 -8.4115e-05 -0.0040463 0.00916491 -1.25249e-05 0.00917185)
(0.00939287 -7.64816e-05 -0.00414979 0.00939235 -1.29376e-05 0.00939918)
(0.00961491 -6.93072e-05 -0.0042508 0.0096146 -1.32847e-05 0.00962129)
(0.00983115 -6.25709e-05 -0.00434905 0.00983106 -1.35512e-05 0.00983759)
(0.0100409 -5.62451e-05 -0.00444434 0.0100411 -1.37197e-05 0.0100474)
(0.0102435 -5.03107e-05 -0.0045362 0.0102439 -1.37698e-05 0.01025)
(0.010438 -4.47282e-05 -0.00462433 0.0104386 -1.36811e-05 0.0104444)
(0.0106233 -3.94776e-05 -0.0047083 0.0106243 -1.34293e-05 0.0106298)
(0.0107987 -3.45507e-05 -0.00478761 0.0107999 -1.29923e-05 0.0108051)
(0.0109626 -2.99086e-05 -0.00486181 0.0109641 -1.23473e-05 0.0109689)
(0.011114 -2.55179e-05 -0.00493027 0.0111157 -1.1475e-05 0.0111203)
(0.0112513 -2.13595e-05 -0.00499226 0.0112532 -1.03615e-05 0.0112575)
(0.0113727 -1.73811e-05 -0.00504712 0.0113749 -8.99837e-06 0.011379)
(0.0114764 -1.3523e-05 -0.00509398 0.0114787 -7.3868e-06 0.0114826)
(0.0115597 -9.72755e-06 -0.00513155 0.0115621 -5.535e-06 0.0115658)
(0.0116196 -5.91505e-06 -0.00515858 0.0116221 -3.45989e-06 0.0116258)
(0.011652 -1.99705e-06 -0.00517324 0.0116546 -1.18436e-06 0.0116582)
(0.00218576 -0.000414842 -2.56209e-05 0.00218575 1.58228e-07 0.00218583)
(0.00146904 -0.000308375 -5.53486e-05 0.00146896 1.17331e-09 0.00146912)
(0.00117069 -0.000292294 -8.89138e-05 0.00117068 -5.26848e-08 0.00117073)
(0.00113469 -0.000323331 -0.000145064 0.00113473 -5.00246e-08 0.00113464)
(0.00126748 -0.000384434 -0.000235978 0.0012676 6.35418e-08 0.0012673)
(0.00150756 -0.000454289 -0.000362582 0.00150775 4.07831e-07 0.00150731)
(0.00181401 -0.000517577 -0.000517577 0.00181402 1.02193e-06 0.00181402)
(0.00216003 -0.000567145 -0.000691753 0.00215939 1.74887e-06 0.00216076)
(0.00252795 -0.000601077 -0.000877126 0.00252627 2.36352e-06 0.00252978)
(0.00290605 -0.000620004 -0.0010677 0.00290319 2.74171e-06 0.00290917)
(0.00328658 -0.000625785 -0.00125917 0.00328261 2.86719e-06 0.00329097)
(0.00366445 -0.000620711 -0.00144872 0.00365954 2.7763e-06 0.00366997)
(0.00403646 -0.000606999 -0.00163442 0.00403085 2.52193e-06 0.00404294)
(0.00440074 -0.000586784 -0.00181533 0.00439466 2.15407e-06 0.00440798)
(0.00475638 -0.000561973 -0.00199085 0.00475004 1.70974e-06 0.00476418)
(0.00510308 -0.000534162 -0.00216099 0.00509666 1.211e-06 0.00511127)
(0.00544101 -0.000504584 -0.00232582 0.00543466 6.67896e-07 0.00544945)
(0.00577056 -0.000474281 -0.00248565 0.0057644 8.30861e-08 0.00577914)
(0.00609232 -0.000444014 -0.0026408 0.00608642 -5.43612e-07 0.00610094)
(0.00640688 -0.00041431 -0.00279175 0.00640131 -1.21243e-06 0.00641548)
(0.0067149 -0.000385592 -0.00293879 0.00670968 -1.92164e-06 0.00672342)
(0.00701688 -0.000358074 -0.0030823 0.00701203 -2.66755e-06 0.00702529)
(0.00731347 -0.000331872 -0.00322264 0.00730898 -3.44445e-06 0.00732175)
(0.00760499 -0.000307102 -0.00336001 0.00760087 -4.24542e-06 0.00761314)
(0.00789193 -0.000283755 -0.00349467 0.00788814 -5.06294e-06 0.00789993)
(0.00817447 -0.000261775 -0.0036269 0.00817101 -5.8885e-06 0.00818232)
(0.00845288 -0.000241168 -0.00375666 0.00844973 -6.71565e-06 0.00846059)
(0.0087273 -0.00022187 -0.00388425 0.00872444 -7.53634e-06 0.00873486)
(0.00899778 -0.000203776 -0.00400966 0.00899521 -8.3439e-06 0.0090052)
(0.00926434 -0.000186855 -0.0041328 0.00926205 -9.13136e-06 0.00927161)
(0.00952684 -0.000171024 -0.00425392 0.00952482 -9.89154e-06 0.00953394)
(0.0097852 -0.00015622 -0.00437278 0.00978346 -1.0618e-05 0.00979214)
(0.0100391 -0.000142383 -0.00448934 0.0100376 -1.13009e-05 0.0100458)
(0.0102882 -0.000129433 -0.00460345 0.010287 -1.19321e-05 0.0102947)
(0.0105321 -0.000117331 -0.004715 0.0105313 -1.24994e-05 0.0105384)
(0.0107704 -0.000106014 -0.00482375 0.0107698 -1.299e-05 0.0107764)
(0.0110023 -9.54282e-05 -0.00492948 0.0110021 -1.33885e-05 0.011008)
(0.0112271 -8.55267e-05 -0.00503189 0.0112273 -1.36764e-05 0.0112326)
(0.0114442 -7.62635e-05 -0.00513058 0.0114447 -1.38324e-05 0.0114493)
(0.0116525 -6.76116e-05 -0.00522514 0.0116535 -1.38343e-05 0.0116572)
(0.0118511 -5.95248e-05 -0.00531522 0.0118525 -1.36592e-05 0.0118555)
(0.0120387 -5.1955e-05 -0.00540028 0.0120405 -1.32821e-05 0.0120427)
(0.0122143 -4.48661e-05 -0.00547974 0.0122165 -1.26782e-05 0.0122179)
(0.0123763 -3.81996e-05 -0.00555302 0.0123789 -1.18284e-05 0.0123796)
(0.0125232 -3.19047e-05 -0.00561948 0.0125261 -1.07174e-05 0.0125261)
(0.0126531 -2.59221e-05 -0.00567817 0.0126563 -9.33464e-06 0.0126557)
(0.0127639 -2.0142e-05 -0.00572825 0.0127674 -7.68194e-06 0.0127663)
(0.012853 -1.44656e-05 -0.00576851 0.0128566 -5.76763e-06 0.0128552)
(0.012917 -8.78754e-06 -0.00579738 0.0129207 -3.61133e-06 0.0129191)
(0.0129517 -2.96597e-06 -0.00581302 0.0129555 -1.23738e-06 0.0129538)
(0.00257678 -0.00050903 -2.59171e-05 0.00257681 2.23215e-07 0.00257683)
(0.00170888 -0.000375229 -5.4903e-05 0.00170883 -1.20401e-09 0.00170892)
(0.00135941 -0.000358132 -8.83027e-05 0.00135947 -8.19646e-08 0.00135938)
(0.00133007 -0.000404481 -0.000147107 0.00133021 -8.91321e-08 0.00132989)
(0.00150202 -0.000493412 -0.00024644 0.00150234 8.0868e-08 0.00150156)
(0.00179611 -0.000596484 -0.000389166 0.00179675 6.61666e-07 0.00179538)
(0.00216003 -0.000691753 -0.000567145 0.00216076 1.74887e-06 0.00215939)
(0.00256086 -0.000768367 -0.000768367 0.00256097 3.09616e-06 0.00256097)
(0.00297842 -0.000823312 -0.00098217 0.00297719 4.35286e-06 0.00297994)
(0.00340046 -0.000857483 -0.00120075 0.00339751 5.33811e-06 0.00340377)
(0.00381958 -0.0008733 -0.00141902 0.00381489 6.02636e-06 0.00382475)
(0.00423142 -0.000873597 -0.00163359 0.00422519 6.44787e-06 0.00423825)
(0.00463355 -0.000861297 -0.0018426 0.00462609 6.64359e-06 0.00464175)
(0.00502481 -0.000839123 -0.00204506 0.00501646 6.65233e-06 0.00503403)
(0.00540484 -0.000809424 -0.00224052 0.00539592 6.50577e-06 0.00541476)
(0.00577382 -0.000774306 -0.00242896 0.00576463 6.22631e-06 0.00578415)
(0.00613226 -0.000735576 -0.00261059 0.00612303 5.82762e-06 0.00614275)
(0.00648084 -0.000694704 -0.00278585 0.00647178 5.3178e-06 0.00649132)
(0.00682035 -0.000652856 -0.00295526 0.00681159 4.70237e-06 0.00683066)
(0.00715158 -0.000610999 -0.0031192 0.00714322 3.98735e-06 0.0071616)
(0.00747535 -0.000569778 -0.00327828 0.00746745 3.18053e-06 0.007485)
(0.00779226 -0.000529757 -0.0034328 0.00778486 2.29213e-06 0.00780148)
(0.00810297 -0.000491266 -0.00358328 0.0080961 1.33453e-06 0.00811173)
(0.00840802 -0.000454496 -0.00373013 0.00840168 3.21582e-07 0.0084163)
(0.00870789 -0.000419634 -0.00387355 0.00870205 -7.32641e-07 0.00871566)
(0.00900289 -0.000386678 -0.00401385 0.00899755 -1.81315e-06 0.00901016)
(0.0092933 -0.000355653 -0.00415126 0.00928843 -2.90597e-06 0.00930007)
(0.00957932 -0.000326544 -0.00428594 0.00957491 -3.99994e-06 0.00958558)
(0.00986107 -0.000299232 -0.00441796 0.0098571 -5.08201e-06 0.00986683)
(0.0101386 -0.000273703 -0.0045475 0.0101351 -6.14146e-06 0.0101439)
(0.0104119 -0.00024986 -0.00467445 0.0104087 -7.16883e-06 0.0104166)
(0.0106806 -0.000227585 -0.00479897 0.0106779 -8.15343e-06 0.0106848)
(0.0109448 -0.000206801 -0.00492088 0.0109425 -9.08544e-06 0.0109485)
(0.011204 -0.000187441 -0.00504018 0.0112021 -9.95327e-06 0.0112071)
(0.0114577 -0.000169401 -0.00515662 0.0114563 -1.07454e-05 0.0114602)
(0.0117056 -0.000152587 -0.00527006 0.0117047 -1.1448e-05 0.0117075)
(0.0119468 -0.000136938 -0.00538027 0.0119464 -1.20447e-05 0.0119482)
(0.0121808 -0.000122358 -0.00548693 0.012181 -1.25177e-05 0.0121816)
(0.0124067 -0.000108793 -0.00558969 0.0124075 -1.28463e-05 0.0124068)
(0.0126236 -9.61682e-05 -0.0056882 0.0126249 -1.30067e-05 0.012623)
(0.0128303 -8.44185e-05 -0.00578201 0.0128322 -1.29768e-05 0.012829)
(0.0130258 -7.3491e-05 -0.00587051 0.0130283 -1.27302e-05 0.0130239)
(0.0132087 -6.33005e-05 -0.0059532 0.0132117 -1.22442e-05 0.013206)
(0.0133774 -5.37715e-05 -0.00602947 0.013381 -1.14978e-05 0.0133742)
(0.0135304 -4.4822e-05 -0.00609859 0.0135345 -1.04739e-05 0.0135266)
(0.0136658 -3.63368e-05 -0.00615967 0.0136703 -9.16486e-06 0.0136615)
(0.0137813 -2.81946e-05 -0.00621169 0.0137861 -7.57044e-06 0.0137766)
(0.013874 -2.02313e-05 -0.00625358 0.0138791 -5.70067e-06 0.013869)
(0.0139407 -1.22742e-05 -0.00628366 0.013946 -3.57741e-06 0.0139355)
(0.0139768 -4.13839e-06 -0.00629987 0.0139822 -1.22718e-06 0.0139715)
(0.00298722 -0.000609879 -2.5871e-05 0.00298732 2.57621e-07 0.00298724)
(0.00196179 -0.000446677 -5.40077e-05 0.00196181 -3.39421e-08 0.00196176)
(0.00156279 -0.000429272 -8.70673e-05 0.00156297 -1.52975e-07 0.00156265)
(0.00154446 -0.000492529 -0.000147424 0.00154476 -1.98639e-07 0.00154409)