/*--------------------------------*- C++ -*----------------------------------*\
| =========                 |                                                 |
| \\      /  F ield         | OpenFOAM: The Open Source CFD Toolbox           |
|  \\    /   O peration     | Version:  v1912                                 |
|   \\  /    A nd           | Website:  www.openfoam.com                      |
|    \\/     M anipulation  |                                                 |
\*---------------------------------------------------------------------------*/
FoamFile
{
    version     2.0;
    format      ascii;
    class       volVectorField;
    location    "4000";
    object      U;
}
// * * * * * * * * * * * * * * * * * * * * * * * * * * * * * * * * * * * * * //

dimensions      [0 1 -1 0 0 0 0];


internalField   nonuniform List<vector> 
2500
(
(0.000968419 -1.8036e-08 -1.8036e-08)
(0.00237859 -1.49555e-08 -5.63037e-08)
(0.00376102 -2.0895e-07 -1.38509e-07)
(0.00515835 -6.99308e-07 -2.54138e-07)
(0.00659015 -1.66354e-06 -4.30388e-07)
(0.00806154 -3.18445e-06 -7.27546e-07)
(0.00956835 -5.08185e-06 -1.21988e-06)
(0.0111012 -6.88065e-06 -1.963e-06)
(0.0126485 -7.93447e-06 -2.96766e-06)
(0.0141982 -7.62883e-06 -4.20548e-06)
(0.0157395 -5.54126e-06 -5.62939e-06)
(0.0172628 -1.50903e-06 -7.19207e-06)
(0.0187608 4.38565e-06 -8.85671e-06)
(0.020228 1.18809e-05 -1.06003e-05)
(0.0216611 2.06169e-05 -1.24118e-05)
(0.0230582 3.02085e-05 -1.42882e-05)
(0.0244188 4.02982e-05 -1.62304e-05)
(0.0257432 5.0586e-05 -1.82409e-05)
(0.0270326 6.08416e-05 -2.03214e-05)
(0.0282884 7.09031e-05 -2.24723e-05)
(0.0295119 8.06687e-05 -2.46923e-05)
(0.0307048 9.00838e-05 -2.69786e-05)
(0.0318683 9.9129e-05 -2.93269e-05)
(0.0330037 0.000107807 -3.17322e-05)
(0.0341119 0.000116134 -3.41885e-05)
(0.0351937 0.000124128 -3.66895e-05)
(0.0362496 0.000131807 -3.92283e-05)
(0.0372799 0.000139177 -4.17978e-05)
(0.0382845 0.000146234 -4.43906e-05)
(0.0392635 0.000152956 -4.6999e-05)
(0.0402165 0.000159304 -4.9615e-05)
(0.0411429 0.000165215 -5.22304e-05)
(0.0420422 0.000170603 -5.48363e-05)
(0.0429134 0.000175358 -5.74237e-05)
(0.0437555 0.000179339 -5.99829e-05)
(0.0445672 0.00018238 -6.25037e-05)
(0.0453472 0.000184287 -6.49753e-05)
(0.0460939 0.000184843 -6.73867e-05)
(0.0468054 0.000183817 -6.97259e-05)
(0.04748 0.000180955 -7.19804e-05)
(0.0481154 0.000176001 -7.41372e-05)
(0.0487093 0.000168705 -7.61825e-05)
(0.049259 0.000158856 -7.81021e-05)
(0.0497615 0.000146282 -7.98799e-05)
(0.0502135 0.000130901 -8.1499e-05)
(0.0506105 0.000112693 -8.29386e-05)
(0.0509473 9.17726e-05 -8.41745e-05)
(0.0512169 6.82778e-05 -8.5175e-05)
(0.0514101 4.24618e-05 -8.59017e-05)
(0.0515146 1.45153e-05 -8.62152e-05)
(0.00237859 -5.63038e-08 -1.49554e-08)
(0.00608196 1.77781e-07 1.77781e-07)
(0.00978331 5.03893e-08 5.3391e-07)
(0.0135226 -5.9154e-07 1.08626e-06)
(0.0173088 -2.02566e-06 1.72577e-06)
(0.0211381 -4.35137e-06 2.1555e-06)
(0.0249981 -7.13451e-06 2.01951e-06)
(0.0288698 -9.35035e-06 1.09179e-06)
(0.0327312 -9.65727e-06 -5.98989e-07)
(0.0365596 -6.8199e-06 -2.81508e-06)
(0.0403342 -2.47015e-08 -5.23974e-06)
(0.0440376 1.09973e-05 -7.59137e-06)
(0.0476565 2.60107e-05 -9.68406e-06)
(0.0511817 4.44142e-05 -1.1438e-05)
(0.0546081 6.54104e-05 -1.28578e-05)
(0.0579341 8.81561e-05 -1.4e-05)
(0.0611604 0.000111872 -1.49429e-05)
(0.0642897 0.000135906 -1.57655e-05)
(0.067326 0.000159757 -1.65349e-05)
(0.0702735 0.000183076 -1.73014e-05)
(0.0731369 0.00020564 -1.80985e-05)
(0.0759203 0.000227335 -1.89452e-05)
(0.0786278 0.000248121 -1.98487e-05)
(0.0812626 0.000268007 -2.08083e-05)
(0.0838277 0.000287032 -2.1818e-05)
(0.0863251 0.000305242 -2.28683e-05)
(0.0887566 0.000322673 -2.39484e-05)
(0.0911232 0.000339347 -2.50467e-05)
(0.0934256 0.000355253 -2.6152e-05)
(0.0956638 0.000370344 -2.72535e-05)
(0.0978375 0.000384531 -2.83413e-05)
(0.0999459 0.000397671 -2.94061e-05)
(0.101988 0.000409571 -3.04398e-05)
(0.103962 0.000419973 -3.14351e-05)
(0.105866 0.000428559 -3.23855e-05)
(0.107697 0.000434947 -3.32856e-05)
(0.109453 0.000438688 -3.41316e-05)
(0.111131 0.000439283 -3.49209e-05)
(0.112727 0.000436196 -3.56513e-05)
(0.114237 0.000428841 -3.6322e-05)
(0.115657 0.000416623 -3.69343e-05)
(0.116981 0.000398963 -3.74911e-05)
(0.118206 0.000375367 -3.7997e-05)
(0.119323 0.000345433 -3.84567e-05)
(0.120327 0.000308961 -3.88752e-05)
(0.121208 0.000265898 -3.92545e-05)
(0.121955 0.00021649 -3.95939e-05)
(0.122552 0.000161051 -3.98832e-05)
(0.12298 0.000100157 -4.01095e-05)
(0.123211 3.42358e-05 -4.01146e-05)
(0.00376102 -1.38509e-07 -2.0895e-07)
(0.00978331 5.3391e-07 5.03894e-08)
(0.015905 7.59522e-07 7.59523e-07)
(0.0221435 4.54558e-07 1.89922e-06)
(0.0284814 -5.98595e-07 3.17965e-06)
(0.0348874 -2.41147e-06 3.86196e-06)
(0.0413257 -4.28711e-06 3.11136e-06)
(0.0477591 -4.74876e-06 4.82298e-07)
(0.0541512 -1.95982e-06 -3.83846e-06)
(0.0604676 5.67621e-06 -9.18954e-06)
(0.0666779 1.91272e-05 -1.4759e-05)
(0.0727575 3.8619e-05 -1.9851e-05)
(0.0786877 6.37204e-05 -2.40197e-05)
(0.0844565 9.35353e-05 -2.70862e-05)
(0.0900576 0.000126925 -2.90811e-05)
(0.0954895 0.000162703 -3.0163e-05)
(0.100754 0.000199776 -3.0544e-05)
(0.105857 0.000237223 -3.04369e-05)
(0.110805 0.000274336 -3.0024e-05)
(0.115604 0.00031061 -2.94453e-05)
(0.120262 0.000345723 -2.87974e-05)
(0.124786 0.000379503 -2.81395e-05)
(0.129183 0.000411884 -2.75014e-05)
(0.133457 0.000442874 -2.68922e-05)
(0.137613 0.000472521 -2.63067e-05)
(0.141655 0.000500884 -2.57319e-05)
(0.145586 0.000528016 -2.51507e-05)
(0.149407 0.000553939 -2.45448e-05)
(0.153119 0.000578631 -2.38965e-05)
(0.156722 0.000602016 -2.31901e-05)
(0.160217 0.000623948 -2.24122e-05)
(0.163602 0.000644206 -2.15521e-05)
(0.166874 0.000662482 -2.06022e-05)
(0.170033 0.000678374 -1.95577e-05)
(0.173075 0.00069138 -1.84173e-05)
(0.175996 0.000700896 -1.71831e-05)
(0.178792 0.000706216 -1.58618e-05)
(0.181459 0.000706552 -1.44649e-05)
(0.183992 0.000701048 -1.3006e-05)
(0.186384 0.000688777 -1.1503e-05)
(0.18863 0.000668793 -9.98036e-06)
(0.190723 0.000640177 -8.46835e-06)
(0.192654 0.00060213 -7.0022e-06)
(0.194414 0.000554006 -5.62003e-06)
(0.195993 0.000495466 -4.36227e-06)
(0.197377 0.000426411 -3.26536e-06)
(0.198549 0.000347203 -2.36225e-06)
(0.199486 0.000258326 -1.67061e-06)
(0.200156 0.00016067 -1.20758e-06)
(0.200518 5.49181e-05 -9.30325e-07)
(0.00515835 -2.54138e-07 -6.99308e-07)
(0.0135226 1.08626e-06 -5.9154e-07)
(0.0221435 1.89922e-06 4.54558e-07)
(0.030981 2.16044e-06 2.16044e-06)
(0.039972 1.83578e-06 3.96392e-06)
(0.0490497 1.23852e-06 4.64377e-06)
(0.0581481 1.5302e-06 2.79015e-06)
(0.0672071 4.64769e-06 -2.21229e-06)
(0.0761747 1.27109e-05 -9.79214e-06)
(0.0850063 2.73292e-05 -1.86221e-05)
(0.0936656 4.92796e-05 -2.72414e-05)
(0.102124 7.85057e-05 -3.44836e-05)
(0.110362 0.000114282 -3.96592e-05)
(0.118367 0.000155443 -4.25488e-05)
(0.126134 0.00020062 -4.32879e-05)
(0.133661 0.000248428 -4.22225e-05)
(0.140955 0.000297606 -3.97808e-05)
(0.148021 0.000347092 -3.63827e-05)
(0.154868 0.000396063 -3.2389e-05)
(0.161508 0.000443923 -2.80792e-05)
(0.167948 0.000490287 -2.36523e-05)
(0.1742 0.000534937 -1.92364e-05)
(0.180269 0.000577783 -1.49038e-05)
(0.186165 0.000618821 -1.0686e-05)
(0.191892 0.000658097 -6.58728e-06)
(0.197455 0.000695674 -2.59471e-06)
(0.202858 0.000731602 1.31363e-06)
(0.208104 0.000765898 5.16338e-06)
(0.213192 0.000798523 8.98036e-06)
(0.218125 0.000829368 1.27883e-05)
(0.222901 0.000858233 1.66075e-05)
(0.227518 0.000884821 2.04543e-05)
(0.231976 0.000908718 2.43404e-05)
(0.23627 0.000929388 2.82728e-05)
(0.240397 0.000946159 3.22532e-05)
(0.244353 0.000958223 3.62775e-05)
(0.248132 0.000964636 4.03339e-05)
(0.25173 0.000964334 4.44014e-05)
(0.255139 0.000956165 4.84555e-05)
(0.258354 0.000938883 5.24671e-05)
(0.261365 0.000911208 5.63934e-05)
(0.264165 0.000871896 6.01815e-05)
(0.266745 0.000819862 6.37693e-05)
(0.269093 0.000754216 6.7089e-05)
(0.271196 0.000674477 7.00695e-05)
(0.273036 0.000580491 7.26455e-05)
(0.274593 0.000472704 7.47602e-05)
(0.275836 0.000351753 7.63818e-05)
(0.276725 0.000218801 7.74816e-05)
(0.277206 7.47817e-05 7.79544e-05)
(0.00659015 -4.30388e-07 -1.66354e-06)
(0.0173088 1.72577e-06 -2.02566e-06)
(0.0284814 3.17965e-06 -5.98595e-07)
(0.039972 3.96392e-06 1.83578e-06)
(0.0516326 4.11551e-06 4.11551e-06)
(0.0633458 4.29253e-06 4.5202e-06)
(0.0750182 6.52744e-06 1.2081e-06)
(0.0865751 1.35822e-05 -6.44165e-06)
(0.0979574 2.77822e-05 -1.72855e-05)
(0.10912 5.03567e-05 -2.92394e-05)
(0.120028 8.14879e-05 -4.02367e-05)
(0.130658 0.000120581 -4.87569e-05)
(0.140994 0.000166528 -5.39896e-05)
(0.151027 0.000217937 -5.57747e-05)
(0.160756 0.000273326 -5.44225e-05)
(0.170184 0.000331263 -5.05128e-05)
(0.179318 0.000390466 -4.47212e-05)
(0.188168 0.000449858 -3.76988e-05)
(0.196743 0.000508592 -3.00033e-05)
(0.205057 0.000566043 -2.20693e-05)
(0.213119 0.000621794 -1.42086e-05)
(0.220941 0.000675592 -6.62403e-06)
(0.228532 0.000727319 5.6934e-07)
(0.2359 0.000776948 7.32181e-06)
(0.243051 0.000824505 1.36296e-05)
(0.249992 0.000870035 1.95186e-05)
(0.256725 0.000913574 2.50321e-05)
(0.263253 0.00095512 3.02223e-05)
(0.269578 0.000994609 3.51437e-05)
(0.275699 0.00103189 3.98499e-05)
(0.281617 0.00106673 4.43911e-05)
(0.287329 0.00109874 4.88121e-05)
(0.292833 0.00112743 5.3152e-05)
(0.298126 0.00115214 5.74433e-05)
(0.303203 0.00117206 6.17111e-05)
(0.30806 0.00118621 6.59721e-05)
(0.312691 0.00119343 7.02312e-05)
(0.317089 0.00119242 7.44782e-05)
(0.321249 0.00118178 7.86984e-05)
(0.325162 0.00115997 8.28705e-05)
(0.328821 0.00112544 8.69519e-05)
(0.332217 0.00107665 9.08828e-05)
(0.335338 0.00101225 9.45899e-05)
(0.338174 0.000931152 9.79904e-05)
(0.34071 0.000832725 0.000100998)
(0.342927 0.000716755 0.000103539)
(0.344799 0.000583748 0.000105556)
(0.346293 0.000434461 0.000107038)
(0.34736 0.000270281 0.000107991)
(0.347937 9.23691e-05 0.000108306)
(0.00806154 -7.27546e-07 -3.18445e-06)
(0.0211381 2.1555e-06 -4.35137e-06)
(0.0348874 3.86196e-06 -2.41147e-06)
(0.0490497 4.64377e-06 1.23852e-06)
(0.0633458 4.5202e-06 4.29253e-06)
(0.0775799 3.85361e-06 3.85361e-06)
(0.0916329 5.38974e-06 -2.47024e-06)
(0.105432 1.34154e-05 -1.48916e-05)
(0.118931 3.10742e-05 -3.12071e-05)
(0.132101 5.92872e-05 -4.83642e-05)
(0.144924 9.74705e-05 -6.37371e-05)
(0.157389 0.000144338 -7.55805e-05)
(0.169493 0.000198329 -8.30627e-05)
(0.181237 0.000257823 -8.61206e-05)
(0.192627 0.000321264 -8.52268e-05)
(0.203669 0.000387231 -8.11539e-05)
(0.214373 0.000454481 -7.47751e-05)
(0.224752 0.000521967 -6.69273e-05)
(0.234817 0.000588848 -5.83293e-05)
(0.244579 0.000654486 -4.95464e-05)
(0.254051 0.000718427 -4.09877e-05)
(0.263242 0.000780373 -3.29211e-05)
(0.272162 0.000840156 -2.54985e-05)
(0.280819 0.000897697 -1.87821e-05)
(0.289219 0.000952975 -1.27696e-05)
(0.297366 0.001006 -7.41477e-06)
(0.305265 0.00105676 -2.64447e-06)
(0.312917 0.00110522 1.6292e-06)
(0.320323 0.00115128 5.50007e-06)
(0.327484 0.00119475 9.06185e-06)
(0.334396 0.00123533 1.24041e-05)
(0.341059 0.00127259 1.56097e-05)
(0.34747 0.00130596 1.87527e-05)
(0.353624 0.00133467 2.18976e-05)
(0.359518 0.0013578 2.50971e-05)
(0.365145 0.00137422 2.83907e-05)
(0.3705 0.0013826 3.18008e-05)
(0.375576 0.00138146 3.53261e-05)
(0.380367 0.00136917 3.8957e-05)
(0.384866 0.00134397 4.26704e-05)
(0.389063 0.00130405 4.64129e-05)
(0.39295 0.00124764 5.01044e-05)
(0.396518 0.00117319 5.36446e-05)
(0.399753 0.00107939 5.6917e-05)
(0.40264 0.000965496 5.98032e-05)
(0.405161 0.000831244 6.21992e-05)
(0.407287 0.000677166 6.40368e-05)
(0.408981 0.000504122 6.53136e-05)
(0.410191 0.000313676 6.60671e-05)
(0.410845 0.000107198 6.63423e-05)
(0.00956835 -1.21988e-06 -5.08185e-06)
(0.0249981 2.01951e-06 -7.13451e-06)
(0.0413257 3.11136e-06 -4.28711e-06)
(0.0581481 2.79015e-06 1.53019e-06)
(0.0750182 1.2081e-06 6.52744e-06)
(0.0916329 -2.47024e-06 5.38974e-06)
(0.107842 -5.79972e-06 -5.79972e-06)
(0.123591 -2.66455e-06 -2.64635e-05)
(0.138869 1.20365e-05 -5.22121e-05)
(0.153684 3.98166e-05 -7.81543e-05)
(0.168047 7.97568e-05 -0.000100806)
(0.181977 0.000129999 -0.000118264)
(0.195489 0.000188484 -0.000129847)
(0.208599 0.000253252 -0.000135735)
(0.221321 0.000322554 -0.000136647)
(0.233671 0.000394879 -0.000133577)
(0.245662 0.000468935 -0.000127593)
(0.257306 0.000543644 -0.000119696)
(0.268616 0.000618124 -0.000110748)
(0.279602 0.000691679 -0.00010143)
(0.290274 0.000763781 -9.22425e-05)
(0.300642 0.00083405 -8.35237e-05)
(0.310712 0.000902228 -7.54729e-05)
(0.32049 0.000968153 -6.81817e-05)
(0.329982 0.00103172 -6.16603e-05)
(0.33919 0.00109287 -5.58622e-05)
(0.348115 0.00115154 -5.07041e-05)
(0.35676 0.00120761 -4.60802e-05)
(0.365123 0.00126095 -4.18742e-05)
(0.373202 0.00131132 -3.79673e-05)
(0.380996 0.00135835 -3.4244e-05)
(0.3885 0.00140156 -3.05963e-05)
(0.395712 0.00144031 -2.69268e-05)
(0.402626 0.00147375 -2.31511e-05)
(0.409237 0.00150086 -1.92004e-05)
(0.41554 0.0015204 -1.50244e-05)
(0.421528 0.00153091 -1.05967e-05)
(0.427195 0.00153074 -5.92228e-06)
(0.432533 0.00151808 -1.02202e-06)
(0.437535 0.001491 4.06207e-06)
(0.442194 0.00144748 9.24784e-06)
(0.446501 0.00138557 1.44152e-05)
(0.450446 0.0013035 1.94148e-05)
(0.454018 0.00119984 2.40741e-05)
(0.4572 0.00107373 2.82171e-05)
(0.459974 0.000924832 3.16866e-05)
(0.462312 0.000753714 3.43762e-05)
(0.464172 0.000561317 3.62667e-05)
(0.465499 0.000349361 3.73997e-05)
(0.466216 0.000119401 3.79937e-05)
(0.0111012 -1.963e-06 -6.88065e-06)
(0.0288698 1.09179e-06 -9.35035e-06)
(0.0477591 4.82298e-07 -4.74876e-06)
(0.0672071 -2.21229e-06 4.64769e-06)
(0.0865751 -6.44165e-06 1.35822e-05)
(0.105432 -1.48916e-05 1.34154e-05)
(0.123591 -2.64635e-05 -2.66455e-06)
(0.141026 -3.35674e-05 -3.35674e-05)
(0.157777 -2.86101e-05 -7.18076e-05)
(0.173906 -8.51707e-06 -0.000109498)
(0.189472 2.6356e-05 -0.000141576)
(0.204528 7.41377e-05 -0.000165786)
(0.219115 0.000132466 -0.000181739)
(0.233271 0.000198995 -0.000190096)
(0.247023 0.000271626 -0.000192041)
(0.260395 0.000348566 -0.000188949)
(0.273404 0.000428315 -0.000182178)
(0.286067 0.00050963 -0.000172952)
(0.298394 0.000591487 -0.000162295)
(0.310396 0.00067306 -0.000151015)
(0.32208 0.00075369 -0.000139708)
(0.333451 0.000832869 -0.000128783)
(0.344515 0.000910214 -0.000118492)
(0.355273 0.000985441 -0.000108962)
(0.365727 0.00105834 -0.000100229)
(0.375878 0.00112873 -9.22588e-05)
(0.385723 0.00119647 -8.49714e-05)
(0.395262 0.00126137 -7.82582e-05)
(0.404491 0.00132321 -7.1994e-05)
(0.413405 0.00138168 -6.60466e-05)
(0.422002 0.00143636 -6.02846e-05)
(0.430275 0.00148672 -5.45826e-05)
(0.438219 0.00153202 -4.88257e-05)
(0.445827 0.00157137 -4.29135e-05)
(0.453095 0.00160365 -3.67644e-05)
(0.460014 0.00162753 -3.03192e-05)
(0.466579 0.00164144 -2.35485e-05)
(0.472782 0.00164361 -1.6462e-05)
(0.478616 0.00163208 -9.09521e-06)
(0.484074 0.00160475 -1.51057e-06)
(0.489148 0.00155948 6.17821e-06)
(0.49383 0.00149413 1.38067e-05)
(0.498112 0.00140679 2.11711e-05)
(0.501981 0.00129589 2.80357e-05)
(0.505424 0.00116049 3.41601e-05)
(0.50842 0.00100019 3.93256e-05)
(0.510941 0.000815587 4.3381e-05)
(0.512946 0.000607688 4.62843e-05)
(0.514375 0.000378359 4.80762e-05)
(0.515146 0.000129328 4.90712e-05)
(0.0126485 -2.96766e-06 -7.93447e-06)
(0.0327312 -5.98989e-07 -9.65727e-06)
(0.0541512 -3.83846e-06 -1.95982e-06)
(0.0761747 -9.79214e-06 1.27109e-05)
(0.0979574 -1.72855e-05 2.77822e-05)
(0.118931 -3.12071e-05 3.10742e-05)
(0.138869 -5.22121e-05 1.20365e-05)
(0.157777 -7.18076e-05 -2.86101e-05)
(0.17576 -8.04851e-05 -8.04851e-05)
(0.192944 -7.34988e-05 -0.000132135)
(0.209443 -4.98767e-05 -0.000176055)
(0.225351 -1.06451e-05 -0.000208998)
(0.240744 4.21244e-05 -0.000230588)
(0.255681 0.000105965 -0.000241972)
(0.270205 0.000178448 -0.00024494)
(0.284352 0.000257399 -0.000241415)
(0.298146 0.000340958 -0.000233198)
(0.311606 0.000427572 -0.000221843)
(0.324747 0.000515961 -0.000208623)
(0.337575 0.000605076 -0.000194519)
(0.350098 0.000694068 -0.000180252)
(0.362317 0.000782255 -0.000166318)
(0.374233 0.000869092 -0.000153025)
(0.385846 0.000954147 -0.000140537)
(0.397152 0.00103707 -0.00012891)
(0.408147 0.00111756 -0.000118119)
(0.418825 0.00119534 -0.000108089)
(0.429182 0.00127013 -9.87042e-05)
(0.439209 0.00134161 -8.98323e-05)
(0.4489 0.00140939 -8.13284e-05)
(0.458246 0.00147297 -7.30462e-05)
(0.46724 0.00153172 -6.48432e-05)
(0.475874 0.00158487 -5.65871e-05)
(0.48414 0.00163141 -4.81605e-05)
(0.492028 0.00167017 -3.9466e-05)
(0.499532 0.00169973 -3.04332e-05)
(0.506643 0.00171842 -2.10259e-05)
(0.513354 0.00172436 -1.1255e-05)
(0.519656 0.00171548 -1.16862e-06)
(0.525543 0.00168955 9.1527e-06)
(0.531008 0.00164429 1.9565e-05)
(0.536042 0.00157743 2.98595e-05)
(0.540637 0.00148694 3.97763e-05)
(0.544784 0.00137115 4.90135e-05)
(0.548467 0.00122901 5.72631e-05)
(0.551668 0.00106012 6.42416e-05)
(0.554358 0.000865065 6.97519e-05)
(0.556495 0.000644934 7.37294e-05)
(0.558017 0.000401723 7.62192e-05)
(0.558837 0.000137337 7.75699e-05)
(0.0141982 -4.20548e-06 -7.62883e-06)
(0.0365596 -2.81508e-06 -6.8199e-06)
(0.0604676 -9.18954e-06 5.67621e-06)
(0.0850063 -1.86221e-05 2.73292e-05)
(0.10912 -2.92394e-05 5.03567e-05)
(0.132101 -4.83642e-05 5.92872e-05)
(0.153684 -7.81543e-05 3.98166e-05)
(0.173906 -0.000109498 -8.51707e-06)
(0.192944 -0.000132135 -7.34988e-05)
(0.210993 -0.00014046 -0.00014046)
(0.228229 -0.00013206 -0.000198967)
(0.24479 -0.000106417 -0.000243944)
(0.260787 -6.45317e-05 -0.000274319)
(0.276301 -8.40504e-06 -0.00029133)
(0.291397 5.95338e-05 -0.000297244)
(0.30612 0.000136839 -0.000294573)
(0.320505 0.000221266 -0.000285673)
(0.334576 0.000310864 -0.000272565)
(0.34835 0.000403987 -0.000256883)
(0.361837 0.000499273 -0.000239884)
(0.375041 0.000595604 -0.000222488)
(0.387964 0.000692072 -0.000205329)
(0.400602 0.000787937 -0.000188807)
(0.412952 0.000882591 -0.000173144)
(0.425005 0.000975527 -0.000158426)
(0.436753 0.0010663 -0.00014464)
(0.448186 0.00115451 -0.000131708)
(0.459293 0.00123974 -0.000119508)
(0.470063 0.00132156 -0.000107893)
(0.480482 0.00139948 -9.67012e-05)
(0.49054 0.00147289 -8.57693e-05)
(0.500223 0.00154108 -7.49359e-05)
(0.509521 0.00160316 -6.405e-05)
(0.518421 0.00165807 -5.29762e-05)
(0.526912 0.00170454 -4.16017e-05)
(0.534985 0.00174105 -2.98432e-05)
(0.542629 0.00176585 -1.76574e-05)
(0.549836 0.00177696 -5.05452e-06)
(0.556596 0.00177218 7.9044e-06)
(0.562902 0.00174919 2.11197e-05)
(0.568747 0.00170558 3.44162e-05)
(0.574123 0.00163899 4.7538e-05)
(0.579023 0.00154728 6.01654e-05)
(0.583437 0.00142866 7.1925e-05)
(0.587352 0.00128204 8.24348e-05)
(0.59075 0.00110697 9.13414e-05)
(0.593601 0.000904066 9.8397e-05)
(0.595863 0.00067448 0.000103513)
(0.597473 0.000420338 0.000106742)
(0.59834 0.000143729 0.00010845)
(0.0157395 -5.62939e-06 -5.54126e-06)
(0.0403342 -5.23974e-06 -2.47017e-08)
(0.0666779 -1.4759e-05 1.91272e-05)
(0.0936656 -2.72414e-05 4.92796e-05)
(0.120028 -4.02367e-05 8.14879e-05)
(0.144924 -6.37371e-05 9.74705e-05)
(0.168047 -0.000100806 7.97568e-05)
(0.189472 -0.000141576 2.6356e-05)
(0.209443 -0.000176055 -4.98767e-05)
(0.228229 -0.000198967 -0.00013206)
(0.246066 -0.000206995 -0.000206995)
(0.263143 -0.000197931 -0.000267245)
(0.279601 -0.000171142 -0.000310259)
(0.295549 -0.000127499 -0.000336691)
(0.311068 -6.88706e-05 -0.000348861)
(0.326218 2.39217e-06 -0.000349692)
(0.341043 8.38445e-05 -0.000342081)
(0.355574 0.000173181 -0.000328589)
(0.369834 0.000268354 -0.000311323)
(0.383833 0.000367612 -0.000291928)
(0.397579 0.000469491 -0.000271624)
(0.411073 0.000572786 -0.000251269)
(0.42431 0.000676508 -0.000231425)
(0.437284 0.000779842 -0.00021242)
(0.449983 0.000882101 -0.000194404)
(0.462394 0.000982687 -0.000177401)
(0.474504 0.00108105 -0.000161342)
(0.486295 0.00117666 -0.000146102)
(0.497751 0.00126895 -0.000131519)
(0.508855 0.00135731 -0.000117413)
(0.519588 0.00144103 -0.000103598)
(0.529934 0.00151928 -8.98914e-05)
(0.539876 0.00159108 -7.61215e-05)
(0.549397 0.00165526 -6.21345e-05)
(0.558482 0.00171044 -4.7802e-05)
(0.567119 0.001755 -3.30294e-05)
(0.575293 0.0017871 -1.77672e-05)
(0.582994 0.00180463 -2.02579e-06)
(0.590212 0.00180531 1.41177e-05)
(0.596937 0.00178669 3.05414e-05)
(0.603163 0.00174627 4.70353e-05)
(0.608881 0.00168158 6.32925e-05)
(0.614085 0.00159036 7.8927e-05)
(0.618766 0.00147078 9.34875e-05)
(0.622911 0.00132166 0.00010651)
(0.626503 0.00114256 0.000117564)
(0.629513 0.000934058 0.000126345)
(0.631898 0.000697417 0.000132736)
(0.633594 0.000434883 0.000136794)
(0.634507 0.000148737 0.00013891)
(0.0172628 -7.19207e-06 -1.50903e-06)
(0.0440376 -7.59137e-06 1.09973e-05)
(0.0727575 -1.9851e-05 3.8619e-05)
(0.102124 -3.44836e-05 7.85057e-05)
(0.130658 -4.87569e-05 0.000120581)
(0.157389 -7.55805e-05 0.000144338)
(0.181977 -0.000118264 0.000129999)
(0.204528 -0.000165786 7.41377e-05)
(0.225351 -0.000208998 -1.06451e-05)
(0.24479 -0.000243944 -0.000106417)
(0.263143 -0.000267245 -0.000197931)
(0.280643 -0.000275403 -0.000275403)
(0.297468 -0.000266066 -0.0003343)
(0.313751 -0.000238545 -0.000374002)
(0.32959 -0.00019359 -0.000396283)
(0.34506 -0.000132932 -0.000404072)
(0.360213 -5.88325e-05 -0.000400606)
(0.37509 2.62815e-05 -0.000388936)
(0.389717 0.000120058 -0.000371686)
(0.40411 0.000220365 -0.000350974)
(0.41828 0.000325343 -0.000328421)
(0.432229 0.000433426 -0.000305206)
(0.445953 0.000543306 -0.000282133)
(0.459444 0.000653902 -0.000259708)
(0.47269 0.000764306 -0.000238205)
(0.485675 0.000873738 -0.000217722)
(0.49838 0.000981495 -0.000198233)
(0.510786 0.00108691 -0.000179629)
(0.522871 0.00118929 -0.000161744)
(0.53461 0.00128792 -0.000144383)
(0.545982 0.00138196 -0.000127339)
(0.556962 0.00147049 -0.000110405)
(0.567527 0.00155239 -9.33869e-05)
(0.577657 0.00162639 -7.61099e-05)
(0.587331 0.00169099 -5.84297e-05)
(0.59653 0.00174446 -4.0241e-05)
(0.605237 0.00178484 -2.14901e-05)
(0.613438 0.00180991 -2.18935e-06)
(0.62112 0.00181725 1.75636e-05)
(0.628272 0.00180431 3.762e-05)
(0.634885 0.00176849 5.773e-05)
(0.640953 0.00170718 7.75298e-05)
(0.646467 0.00161808 9.65608e-05)
(0.651419 0.00149923 0.000114285)
(0.655798 0.00134942 0.00013015)
(0.659587 0.00116817 0.000143637)
(0.662758 0.000956105 0.000154378)
(0.665267 0.000714537 0.000162225)
(0.667049 0.000445849 0.000167238)
(0.668008 0.00015253 0.000169833)
(0.0187608 -8.85671e-06 4.38565e-06)
(0.0476565 -9.68406e-06 2.60107e-05)
(0.0786877 -2.40197e-05 6.37204e-05)
(0.110362 -3.96592e-05 0.000114282)
(0.140994 -5.39896e-05 0.000166528)
(0.169493 -8.30627e-05 0.000198329)
(0.195489 -0.000129847 0.000188484)
(0.219115 -0.000181739 0.000132466)
(0.240744 -0.000230588 4.21244e-05)
(0.260787 -0.000274319 -6.45317e-05)
(0.279601 -0.000310259 -0.000171142)
(0.297468 -0.0003343 -0.000266066)
(0.314599 -0.000342727 -0.000342727)
(0.331152 -0.000333258 -0.000398775)
(0.347243 -0.000305193 -0.000434841)
(0.362958 -0.000259171 -0.000453325)
(0.378361 -0.000196791 -0.000457427)
(0.393499 -0.000120218 -0.000450475)
(0.408405 -3.18463e-05 -0.000435539)
(0.4231 6.59477e-05 -0.000415226)
(0.437598 0.000170959 -0.000391623)
(0.451905 0.000281236 -0.000366316)
(0.466018 0.000395101 -0.000340442)
(0.47993 0.000511139 -0.000314762)
(0.49363 0.000628161 -0.000289741)
(0.507101 0.000745153 -0.000265611)
(0.520322 0.000861221 -0.000242434)
(0.53327 0.00097554 -0.000220148)
(0.545918 0.0010873 -0.000198608)
(0.55824 0.00119565 -0.000177619)
(0.570206 0.00129966 -0.000156959)
(0.581786 0.00139829 -0.0001364)
(0.592952 0.00149033 -0.000115726)
(0.603676 0.00157437 -9.47381e-05)
(0.61393 0.0016488 -7.32752e-05)
(0.62369 0.00171177 -5.12206e-05)
(0.632934 0.00176118 -2.85172e-05)
(0.641642 0.00179469 -5.18328e-06)
(0.649798 0.00180976 1.86631e-05)
(0.657389 0.00180368 4.28358e-05)
(0.664402 0.00177373 6.70399e-05)
(0.67083 0.00171721 9.08479e-05)
(0.676665 0.0016317 0.00011372)
(0.681898 0.00151517 0.000135024)
(0.686519 0.00136634 0.000154107)
(0.690511 0.00118472 0.000170355)
(0.693847 0.000970934 0.00018333)
(0.696484 0.000726379 0.000192842)
(0.698355 0.000453573 0.000198953)
(0.699361 0.000155222 0.000202104)
(0.020228 -1.06003e-05 1.18809e-05)
(0.0511817 -1.1438e-05 4.44142e-05)
(0.0844565 -2.70862e-05 9.35353e-05)
(0.118367 -4.25488e-05 0.000155443)
(0.151027 -5.57747e-05 0.000217937)
(0.181237 -8.61206e-05 0.000257823)
(0.208599 -0.000135735 0.000253252)
(0.233271 -0.000190096 0.000198995)
(0.255681 -0.000241972 0.000105965)
(0.276301 -0.00029133 -8.40505e-06)
(0.295549 -0.000336691 -0.000127499)
(0.313751 -0.000374002 -0.000238545)
(0.331152 -0.000398775 -0.000333258)
(0.347935 -0.000407456 -0.000407456)
(0.364232 -0.000397896 -0.00046022)
(0.380143 -0.000369382 -0.000492901)
(0.395742 -0.000322453 -0.000508178)
(0.411081 -0.000258582 -0.000509308)
(0.426201 -0.000179832 -0.000499589)
(0.441128 -8.85496e-05 -0.000482026)
(0.455881 1.28806e-05 -0.000459172)
(0.470467 0.000122199 -0.000433065)
(0.484888 0.000237366 -0.000405248)
(0.49914 0.000356597 -0.000376823)
(0.513212 0.00047836 -0.000348522)
(0.527087 0.000601343 -0.000320776)
(0.540745 0.000724407 -0.00029379)
(0.554162 0.000846524 -0.000267594)
(0.567308 0.000966725 -0.000242099)
(0.580153 0.00108403 -0.000217134)
(0.592663 0.00119741 -0.000192481)
(0.604804 0.0013057 -0.000167901)
(0.616539 0.00140761 -0.000143156)
(0.627834 0.00150163 -0.000118027)
(0.638656 0.00158602 -9.23346e-05)
(0.648973 0.00165882 -6.59483e-05)
(0.658756 0.00171779 -3.88082e-05)
(0.667979 0.00176045 -1.09406e-05)
(0.67662 0.00178411 1.75149e-05)
(0.684662 0.00178593 4.63252e-05)
(0.692091 0.00176303 7.51432e-05)
(0.698894 0.0017126 0.000103469)
(0.705063 0.00163208 0.000130672)
(0.71059 0.00151937 0.000156014)
(0.715463 0.00137311 0.000178732)
(0.719668 0.00119278 0.000198107)
(0.723177 0.000979014 0.00021362)
(0.725947 0.000733294 0.000225033)
(0.72791 0.000458272 0.000232404)
(0.728965 0.000156889 0.000236199)
(0.0216611 -1.24118e-05 2.06169e-05)
(0.0546081 -1.28578e-05 6.54104e-05)
(0.0900576 -2.90811e-05 0.000126925)
(0.126134 -4.32879e-05 0.00020062)
(0.160756 -5.44225e-05 0.000273326)
(0.192627 -8.52268e-05 0.000321264)
(0.221321 -0.000136647 0.000322554)
(0.247023 -0.000192041 0.000271626)
(0.270205 -0.00024494 0.000178448)
(0.291397 -0.000297244 5.95338e-05)
(0.311068 -0.000348861 -6.88706e-05)
(0.32959 -0.000396283 -0.00019359)
(0.347243 -0.000434841 -0.000305193)
(0.364232 -0.00046022 -0.000397896)
(0.380709 -0.000469108 -0.000469108)
(0.396784 -0.000459465 -0.000518767)
(0.412541 -0.000430562 -0.000548579)
(0.428041 -0.000382843 -0.000561292)
(0.44333 -0.00031766 -0.000560099)
(0.458438 -0.000236975 -0.000548193)
(0.473389 -0.000143076 -0.000528483)
(0.488194 -3.83404e-05 -0.000503443)
(0.502859 7.49287e-05 -0.000475056)
(0.517382 0.00019461 -0.000444826)
(0.531755 0.00031881 -0.000413828)
(0.545963 0.000445873 -0.000382766)
(0.559987 0.000574348 -0.000352053)
(0.573802 0.00070295 -0.00032187)
(0.58738 0.000830497 -0.000292225)
(0.600687 0.000955844 -0.000263008)
(0.613686 0.00107782 -0.000234029)
(0.62634 0.00119518 -0.000205055)
(0.638606 0.00130651 -0.000175839)
(0.650445 0.00141021 -0.000146147)
(0.661816 0.00150447 -0.000115779)
(0.672678 0.00158719 -8.4594e-05)
(0.682997 0.00165602 -5.25266e-05)
(0.692739 0.00170834 -1.96118e-05)
(0.701876 0.0017413 1.39864e-05)
(0.710383 0.00175189 4.79825e-05)
(0.718242 0.0017371 8.19674e-05)
(0.725437 0.00169395 0.000115359)
(0.731958 0.00161975 0.000147424)
(0.737794 0.00151229 0.000177307)
(0.742934 0.00137012 0.000204119)
(0.747363 0.00119268 0.000227024)
(0.751054 0.000980616 0.000245412)
(0.753964 0.00073548 0.00025899)
(0.756025 0.000460072 0.000267805)
(0.757131 0.000157572 0.000272338)
(0.0230582 -1.42882e-05 3.02085e-05)
(0.0579341 -1.4e-05 8.81561e-05)
(0.0954895 -3.0163e-05 0.000162703)
(0.133661 -4.22225e-05 0.000248428)
(0.170184 -5.05128e-05 0.000331263)
(0.203669 -8.11539e-05 0.000387231)
(0.233671 -0.000133577 0.000394879)
(0.260395 -0.000188949 0.000348566)
(0.284352 -0.000241415 0.000257399)
(0.30612 -0.000294573 0.000136839)
(0.326218 -0.000349692 2.39217e-06)
(0.34506 -0.000404072 -0.000132932)
(0.362958 -0.000453325 -0.000259171)
(0.380143 -0.000492901 -0.000369382)
(0.396784 -0.000518767 -0.000459465)
(0.413005 -0.000527816 -0.000527816)
(0.428897 -0.00051809 -0.000574842)
(0.44453 -0.00048884 -0.000602381)
(0.459955 -0.000440418 -0.000613126)
(0.475208 -0.000374062 -0.000610143)
(0.490316 -0.000291633 -0.000596487)
(0.505295 -0.000195354 -0.000574951)
(0.520154 -8.75924e-05 -0.000547924)
(0.534893 2.9315e-05 -0.000517335)
(0.549509 0.000153168 -0.000484651)
(0.563989 0.000281963 -0.000450924)
(0.578315 0.000413907 -0.000416841)
(0.592465 0.000547399 -0.000382799)
(0.606411 0.000680985 -0.000348963)
(0.620119 0.000813299 -0.000315326)
(0.633551 0.000942997 -0.000281762)
(0.646667 0.00106869 -0.000248072)
(0.659421 0.00118886 -0.000214016)
(0.671767 0.00130183 -0.000179356)
(0.68366 0.00140568 -0.00014388)
(0.695051 0.00149823 -0.000107435)
(0.705897 0.00157702 -6.99513e-05)
(0.716158 0.00163931 -3.14731e-05)
(0.725795 0.00168208 7.8122e-06)
(0.734779 0.00170219 4.75597e-05)
(0.743083 0.00169642 8.72907e-05)
(0.750688 0.00166163 0.000126329)
(0.757578 0.001595 0.000163827)
(0.763741 0.00149415 0.000198793)
(0.769164 0.00135755 0.000230202)
(0.773832 0.00118458 0.000257083)
(0.777717 0.00097586 0.000278721)
(0.780776 0.000733028 0.000294756)
(0.78294 0.000459027 0.000305221)
(0.784101 0.000157292 0.000310597)
(0.0244188 -1.62304e-05 4.02982e-05)
(0.0611604 -1.49429e-05 0.000111872)
(0.100754 -3.0544e-05 0.000199776)
(0.140955 -3.97808e-05 0.000297606)
(0.179318 -4.47212e-05 0.000390466)
(0.214373 -7.47751e-05 0.000454481)
(0.245662 -0.000127593 0.000468935)
(0.273404 -0.000182178 0.000428315)
(0.298146 -0.000233198 0.000340958)
(0.320505 -0.000285673 0.000221266)
(0.341043 -0.000342081 8.38444e-05)
(0.360213 -0.000400606 -5.88325e-05)
(0.378361 -0.000457427 -0.000196791)
(0.395742 -0.000508178 -0.000322453)
(0.412541 -0.000548579 -0.000430562)
(0.428897 -0.000574842 -0.00051809)
(0.444912 -0.000584018 -0.000584018)
(0.46066 -0.000574209 -0.00062898)
(0.476199 -0.00054464 -0.00065481)
(0.491572 -0.000495577 -0.000664086)