/*--------------------------------*- C++ -*----------------------------------*\
| =========                 |                                                 |
| \\      /  F ield         | OpenFOAM: The Open Source CFD Toolbox           |
|  \\    /   O peration     | Version:  2.3.x                                 |
|   \\  /    A nd           | Web:      www.OpenFOAM.org                      |
|    \\/     M anipulation  |                                                 |
\*---------------------------------------------------------------------------*/
FoamFile
{
    version     2.0;
    format      ascii;
    class       volVectorField;
    location    "3000";
    object      U;
}
// * * * * * * * * * * * * * * * * * * * * * * * * * * * * * * * * * * * * * //

dimensions      [0 1 -1 0 0 0 0];

internalField   nonuniform List<vector> 
1500
(
(0.00497457 -0.000220609 -5.57475e-24)
(0.00409606 -0.00129819 5.57729e-24)
(0.000330621 -0.000578527 0)
(-0.00134475 0.000730521 1.29476e-18)
(-0.00118838 0.000840011 0)
(-0.00104748 0.000763204 -2.29023e-21)
(-0.00116165 0.000842223 -2.48495e-18)
(-0.00123215 0.00085469 0)
(-0.00133266 0.000780231 -3.06918e-18)
(-0.00144484 0.00059697 1.5651e-18)
(-0.00156037 0.000329919 1.48676e-18)
(-0.00157661 3.77873e-05 -1.82323e-19)
(-0.00132097 -1.62395e-05 0)
(-0.000829294 -3.13262e-05 0)
(-0.000220951 -3.574e-05 0)
(0.000272532 -2.62581e-05 -3.89628e-22)
(0.000641112 -2.34169e-05 0)
(0.0149283 -0.000426098 0)
(0.0120525 -0.0033493 0)
(0.00427256 -0.00258345 -1.55653e-19)
(-0.000705133 0.000628963 -9.29397e-19)
(-0.00150965 0.00124985 1.07962e-18)
(-0.00148577 0.00117858 -1.12269e-18)
(-0.00178796 0.00138807 1.34285e-18)
(-0.00197887 0.00144748 1.52368e-21)
(-0.00212852 0.00129819 1.60787e-18)
(-0.00222085 0.000945392 -7.86865e-19)
(-0.00226618 0.000485842 7.11145e-19)
(-0.00211256 3.18901e-05 3.98292e-20)
(-0.0016072 -4.57368e-05 9.54405e-22)
(-0.000912673 -5.64406e-05 3.0331e-21)
(-0.000198036 -4.88019e-05 0)
(0.000337575 -3.81397e-05 -6.06119e-22)
(0.00081421 -3.50964e-05 1.33573e-21)
(0.0207074 -0.000514464 0)
(0.0173479 -0.00446044 1.5739e-19)
(0.00817463 -0.00451808 9.03721e-20)
(0.000807996 -0.000308665 2.88285e-22)
(-0.0012337 0.00110659 -6.3809e-19)
(-0.00147664 0.00120147 -3.0091e-22)
(-0.00187624 0.00148707 -1.48772e-18)
(-0.00213523 0.00158275 7.83985e-22)
(-0.0023162 0.00142481 -1.74487e-18)
(-0.00240964 0.0010296 0)
(-0.00242705 0.000510947 -4.03355e-19)
(-0.00220402 1.76848e-06 0)
(-0.00162116 -9.66881e-05 0)
(-0.000875118 -0.000113049 -1.57092e-21)
(-0.000130358 -0.000101385 -1.47548e-21)
(0.000439507 -8.066e-05 3.83209e-22)
(0.000983581 -7.53987e-05 -3.04481e-21)
(0.0229982 -0.000503205 -1.84856e-21)
(0.020029 -0.00482315 -9.16127e-20)
(0.0110798 -0.00570627 -2.67226e-20)
(0.00268818 -0.0013668 2.80734e-22)
(-0.000567779 0.000732604 -2.03718e-22)
(-0.00125184 0.00108291 1.04191e-21)
(-0.0017676 0.00144938 5.54285e-19)
(-0.00209738 0.00158495 0)
(-0.00231361 0.00143773 1.2661e-18)
(-0.00241537 0.00103283 1.23399e-21)
(-0.00241436 0.000489353 3.0256e-19)
(-0.0021447 -4.82903e-05 2.30672e-21)
(-0.00152231 -0.000168774 -9.45212e-22)
(-0.000760285 -0.000190925 0)
(-6.77419e-06 -0.000170599 7.23862e-22)
(0.000591184 -0.00013944 7.30305e-22)
(0.00118344 -0.000133125 1.79429e-21)
(0.024045 -0.000412507 1.1832e-21)
(0.0215185 -0.00471463 1.82593e-24)
(0.0133876 -0.00624592 2.35577e-20)
(0.00493769 -0.00242907 -3.22578e-19)
(0.000601271 0.000131492 -9.52303e-22)
(-0.000756733 0.000828154 8.84868e-22)
(-0.00147869 0.00130983 0)
(-0.00191455 0.00150305 5.24849e-19)
(-0.00218197 0.00138128 -5.51896e-19)
(-0.0022974 0.000982555 2.24139e-21)
(-0.00227889 0.000429911 -2.7082e-19)
(-0.00196643 -0.000123273 0)
(-0.00131762 -0.000266836 1.80203e-21)
(-0.000556554 -0.000293063 5.09632e-21)
(0.000193467 -0.000261252 1.52676e-21)
(0.00081243 -0.000219123 -1.4873e-21)
(0.0014392 -0.000211954 0)
(0.0246764 -0.000284998 6.20098e-25)
(0.022519 -0.00436315 -6.44363e-21)
(0.0153655 -0.00632972 -3.80742e-21)
(0.00743305 -0.00336739 2.76825e-19)
(0.00236615 -0.000673068 1.09812e-21)
(0.000178484 0.00038869 -1.76733e-21)
(-0.000923396 0.0010425 4.95275e-19)
(-0.00154194 0.00132541 -1.01851e-18)
(-0.00189609 0.0012501 4.19993e-21)
(-0.00203786 0.000873652 -8.42771e-21)
(-0.00200342 0.000325883 -1.54232e-22)
(-0.00164755 -0.000230108 3.87638e-21)
(-0.000980213 -0.000395785 0)
(-0.000232945 -0.000423352 -1.01557e-20)
(0.000501115 -0.000378294 1.48793e-21)
(0.00113189 -0.000324892 -4.70046e-23)
(0.00177998 -0.000316117 1.67565e-21)
(0.0251467 -0.000133694 9.52059e-24)
(0.0233049 -0.00386899 5.13825e-21)
(0.0171685 -0.00608823 0)
(0.0100538 -0.00407567 0)
(0.00472838 -0.00159221 -3.94808e-19)
(0.00174745 -0.000262377 3.89813e-21)
(8.12046e-05 0.000593977 -5.15943e-19)
(-0.000864215 0.00101509 -3.66856e-21)
(-0.00137901 0.00101875 -4.44161e-21)
(-0.00157816 0.000686206 8.37655e-21)
(-0.00153603 0.000161034 0)
(-0.00113644 -0.000380948 2.37405e-20)
(-0.000459396 -0.000563886 6.89166e-21)
(0.000258652 -0.000587677 -1.73554e-20)
(0.000961685 -0.000528311 3.25076e-21)
(0.00159109 -0.000463318 -6.57992e-21)
(0.00224597 -0.000451136 -3.41708e-21)
(0.0255482 3.39791e-05 -1.67876e-23)
(0.023988 -0.00328377 1.82953e-23)
(0.0188693 -0.00559955 -2.00084e-22)
(0.0127066 -0.00448657 -6.87799e-22)
(0.00756927 -0.00247333 6.9472e-19)
(0.00406801 -0.0010775 -4.54866e-19)
(0.00178187 -7.2551e-05 3.84569e-21)
(0.000345871 0.000516699 8.28732e-21)
(-0.000473724 0.00064673 2.68227e-19)
(-0.000802702 0.000388298 -2.80537e-19)
(-0.000781203 -8.95848e-05 0)
(-0.000345179 -0.000593675 -2.47937e-20)
(0.000324927 -0.000780338 -3.65494e-20)
(0.000984862 -0.000791473 -7.30317e-21)
(0.00164311 -0.000717534 1.39212e-20)
(0.0022503 -0.0006404 1.07653e-22)
(0.00289512 -0.000622 3.51751e-21)
(0.0259232 0.000215058 0)
(0.0246226 -0.00264415 0)
(0.0204953 -0.0049188 -1.89842e-22)
(0.015325 -0.00457415 -1.64719e-19)
(0.0106906 -0.00315634 -5.75178e-19)
(0.00708265 -0.00191803 7.78354e-19)
(0.00435076 -0.000905038 -7.99024e-21)
(0.00237852 -0.000197519 1.07406e-18)
(0.00111605 8.48235e-05 -5.98442e-19)
(0.000509107 -5.59401e-05 3.24399e-19)
(0.000427573 -0.000455133 0)
(0.000864635 -0.000885468 0)
(0.00147524 -0.00104923 3.00364e-20)
(0.00205316 -0.00103887 -2.76468e-22)
(0.0026417 -0.00095029 1.41665e-20)
(0.00319645 -0.000859753 7.21734e-21)
(0.00381084 -0.00083154 7.31863e-21)
(0.0262943 0.000406537 0)
(0.0252387 -0.00198667 6.49403e-23)
(0.0220466 -0.00409901 3.03056e-22)
(0.0178588 -0.00434692 2.75274e-19)
(0.0138915 -0.00353174 4.59074e-19)
(0.0105418 -0.00260078 -6.3048e-19)
(0.00772771 -0.00174271 3.89057e-19)
(0.00541868 -0.00104593 -4.52617e-19)
(0.00371512 -0.000658951 2.58114e-19)
(0.00270682 -0.000660949 0)
(0.00235196 -0.000935966 0)
(0.00267753 -0.00125579 6.57914e-20)
(0.00316099 -0.00136912 3.03074e-20)
(0.00361294 -0.001328 -7.28447e-20)
(0.00408999 -0.00122376 -4.59269e-22)
(0.0045511 -0.00111874 1.39582e-20)
(0.00510946 -0.00107703 -2.8448e-20)
(0.026675 0.000600692 1.02439e-20)
(0.0258553 -0.00135039 2.15846e-20)
(0.0235072 -0.00320311 7.35505e-22)
(0.0202618 -0.00384304 -1.81295e-19)
(0.0170196 -0.00355842 -8.88208e-20)
(0.0141376 -0.00298941 3.67714e-19)
(0.0115749 -0.00238323 -2.99031e-19)
(0.00929271 -0.00182748 0)
(0.00740563 -0.00144039 0)
(0.00607052 -0.00133184 5.87748e-20)
(0.00530681 -0.00146853 -2.87497e-20)
(0.00534861 -0.00166615 -2.79305e-20)
(0.00559688 -0.00171165 2.79205e-20)
(0.00585103 -0.00163736 4.44871e-22)
(0.00615644 -0.00151895 0)
(0.00647161 -0.00140127 -4.03125e-20)
(0.00694143 -0.00134362 3.93577e-20)
(0.0270771 0.000779373 -9.04017e-21)
(0.0264875 -0.000774069 -1.98105e-20)
(0.0248597 -0.00230689 -4.59388e-20)
(0.0224853 -0.00313349 5.05023e-20)
(0.0199692 -0.00325447 -6.21604e-20)
(0.0176313 -0.00303185 -9.12969e-20)
(0.0154921 -0.00269686 1.53033e-20)
(0.0135167 -0.00234212 -1.90656e-19)
(0.0117764 -0.00204452 -1.10087e-19)
(0.010399 -0.00188888 1.66119e-19)
(0.00945098 -0.00191039 0)
(0.00906018 -0.0019868 1.13396e-21)
(0.00896336 -0.00198565 -4.52633e-20)
(0.00894168 -0.00190262 -9.37259e-20)
(0.00901139 -0.00178566 9.29056e-20)
(0.00912551 -0.00166603 1.28824e-20)
(0.00946895 -0.0015937 -6.82065e-20)
(0.0275205 0.000911543 0)
(0.0271511 -0.00029343 -3.65909e-22)
(0.0261022 -0.00149137 4.10367e-20)
(0.0244872 -0.00232468 -6.56206e-21)
(0.0226602 -0.00269262 6.89005e-21)
(0.0208739 -0.00274936 0)
(0.0191998 -0.00265669 2.08776e-20)
(0.0176354 -0.00250011 1.15507e-19)
(0.0162182 -0.00232898 2.28472e-21)
(0.0150216 -0.00218921 -1.68003e-19)
(0.0141185 -0.00211365 0)
(0.0135119 -0.00208639 -1.38806e-19)
(0.0131376 -0.00207044 1.05377e-19)
(0.0128648 -0.0020202 3.80101e-20)
(0.0126968 -0.00193698 -7.1944e-20)
(0.0125908 -0.00183788 -3.6402e-20)
(0.0127802 -0.00175777 3.67457e-20)
(0.0280465 0.000957993 -1.4304e-20)
(0.0278721 5.95893e-05 1.50789e-21)
(0.0272638 -0.00082639 2.88308e-21)
(0.0262609 -0.00154215 4.50328e-20)
(0.0250429 -0.00199491 0)
(0.0237778 -0.00222307 2.8324e-20)
(0.0225532 -0.00230961 -2.90658e-20)
(0.021398 -0.00231483 -9.9715e-20)
(0.020337 -0.00227071 1.76844e-19)
(0.0194073 -0.00219827 0)
(0.0186476 -0.00211006 -8.61237e-20)
(0.0181184 -0.00202704 4.29169e-20)
(0.0176595 -0.00197554 1.21797e-19)
(0.0172512 -0.00193831 2.60673e-20)
(0.0169277 -0.00189471 8.14604e-20)
(0.0166595 -0.00183343 -4.04061e-20)
(0.0167039 -0.00175522 -2.70566e-20)
(0.0287213 0.000886872 1.09069e-20)
(0.0286974 0.000256036 0)
(0.0284101 -0.000365251 -5.56602e-21)
(0.027861 -0.000913398 -1.23777e-20)
(0.0271299 -0.00133131 0)
(0.0263143 -0.0016129 0)
(0.0254907 -0.00178761 0)
(0.0246996 -0.00188938 1.47427e-19)
(0.023958 -0.00193944 -1.00673e-19)
(0.023278 -0.00194822 5.41047e-20)
(0.0226721 -0.00192043 0)
(0.0221735 -0.00186151 3.09233e-20)
(0.0217373 -0.00179354 6.78772e-20)
(0.0213591 -0.00172914 -5.2806e-20)
(0.0210224 -0.00167109 -7.66856e-20)
(0.0206953 -0.00161387 1.47277e-19)
(0.0206413 -0.00153552 -5.69012e-20)
(0.000970941 -1.83816e-05 0)
(0.00122956 -1.39126e-05 0)
(0.00145744 -1.06122e-05 0)
(0.00164479 -7.9995e-06 0)
(0.00180143 -5.9756e-06 0)
(0.0019294 -4.40677e-06 0)
(0.00203319 -3.198e-06 -1.20899e-22)
(0.00211586 -2.27949e-06 1.26429e-22)
(0.0021803 -1.59271e-06 1.34173e-22)
(0.00222889 -1.09481e-06 -1.38822e-22)
(0.00226341 -7.47484e-07 0)
(0.00228553 -5.31937e-07 -6.04209e-22)
(0.00229548 -4.0664e-07 6.18565e-22)
(0.0022957 -4.22292e-07 0)
(0.00228117 -3.84124e-07 0)
(0.002263 -6.41157e-07 0)
(0.00128757 -3.24729e-05 0)
(0.00169515 -2.93303e-05 0)
(0.00208238 -2.63374e-05 0)
(0.00243049 -2.32261e-05 0)
(0.00274816 -2.03269e-05 0)
(0.00303404 -1.76246e-05 -2.09301e-22)
(0.00329087 -1.51513e-05 2.24341e-22)
(0.00351997 -1.28932e-05 0)
(0.00372294 -1.08294e-05 0)
(0.00390102 -8.92868e-06 2.78737e-22)
(0.00405492 -7.15312e-06 -2.92992e-22)
(0.00418545 -5.45881e-06 -6.25045e-22)
(0.0042911 -3.78807e-06 6.52229e-22)
(0.00437395 -2.10602e-06 0)
(0.0044228 -1.73689e-07 -1.44317e-21)
(0.00445644 1.55726e-06 2.99732e-21)
(0.00151995 -6.97945e-05 6.1997e-22)
(0.0019874 -6.3276e-05 -6.78889e-22)
(0.00243379 -5.76863e-05 3.79641e-22)
(0.00283992 -5.18726e-05 -4.05772e-22)
(0.00321448 -4.65389e-05 0)
(0.00355596 -4.15016e-05 0)
(0.00386699 -3.68348e-05 0)
(0.00414877 -3.24852e-05 0)
(0.00440272 -2.8414e-05 0)
(0.00462992 -2.45536e-05 0)
(0.00483079 -2.08346e-05 0)
(0.00500581 -1.71404e-05 0)
(0.00515297 -1.33947e-05 -7.01213e-22)
(0.00527385 -9.32741e-06 7.27586e-22)
(0.00535625 -4.90371e-06 -1.53238e-21)
(0.00541757 6.58228e-08 1.58333e-21)
(0.0017568 -0.000124011 -5.18015e-22)
(0.00225847 -0.000112981 -1.05345e-23)
(0.00273626 -0.000103709 5.86865e-22)
(0.0031724 -9.3993e-05 0)
(0.00357543 -8.51056e-05 0)
(0.00394427 -7.66678e-05 0)
(0.00428156 -6.88198e-05 0)
(0.00458861 -6.14571e-05 0)
(0.00486685 -5.45149e-05 0)
(0.00511733 -4.78722e-05 0)
(0.00534044 -4.14139e-05 0)
(0.00553653 -3.49183e-05 0)
(0.00570355 -2.82913e-05 -9.65517e-22)
(0.00584264 -2.09271e-05 9.95363e-22)
(0.00594202 -1.30847e-05 0)
(0.00601701 -3.55608e-06 0)
(0.00203556 -0.000198172 0)
(0.00255899 -0.000181337 0)
(0.00305564 -0.000167203 0)
(0.00350974 -0.000152372 5.54164e-22)
(0.00392941 -0.000138757 -5.70425e-22)
(0.00431404 -0.000125777 0)
(0.00466629 -0.000113646 0)
(0.00498756 -0.000102205 0)
(0.00527935 -9.1359e-05 0)
(0.0055427 -8.09205e-05 0)
(0.00577803 -7.07134e-05 0)
(0.00598562 -6.03856e-05 0)
(0.00616353 -4.98016e-05 -1.55568e-21)
(0.00631253 -3.79526e-05 1.59448e-21)
(0.00642168 -2.54018e-05 0)
(0.00650412 -9.65022e-06 1.71971e-21)
(0.00238787 -0.000295949 0)
(0.00292293 -0.000271631 0)
(0.00342895 -0.000251016 0)
(0.00389228 -0.000229575 1.0342e-21)
(0.00432033 -0.000209798 -1.05417e-21)
(0.00471299 -0.00019093 0)
(0.00507285 -0.000173236 -2.8466e-22)
(0.00540142 -0.000156498 2.90353e-22)
(0.00570017 -0.00014057 3.02543e-22)
(0.00597017 -0.000125185 -3.0863e-22)
(0.00621186 -0.000110081 0)
(0.00642547 -9.47502e-05 -1.32192e-21)
(0.00660921 -7.89695e-05 1.34837e-21)
(0.00676348 -6.13034e-05 0)
(0.00687831 -4.24978e-05 0)
(0.00696494 -1.86804e-05 -2.97315e-21)
(0.00285342 -0.000422539 -3.62049e-21)
(0.00338909 -0.0003887 0)
(0.00389455 -0.000359511 0)
(0.00435822 -0.00032962 -1.99918e-21)
(0.00478648 -0.00030188 9.96361e-22)
(0.00517966 -0.000275459 1.03668e-21)
(0.00554022 -0.000250619 0)
(0.00586968 -0.000227082 0)
(0.00616947 -0.000204627 0)
(0.00644064 -0.000182888 0)
(0.00668362 -0.000161485 0)
(0.00689857 -0.000139737 2.42724e-21)
(0.00708389 -0.000117256 -2.46437e-21)
(0.00723957 -9.22003e-05 2.54987e-21)
(0.00735667 -6.52587e-05 -2.59132e-21)
(0.00744488 -3.12647e-05 5.37533e-21)
(0.00348784 -0.000582947 7.38957e-21)
(0.00401024 -0.000537386 -3.72358e-21)
(0.00450285 -0.00049719 3.86048e-21)
(0.0049559 -0.000456756 -5.83144e-21)
(0.00537445 -0.000418954 1.97074e-21)
(0.00575919 -0.000383029 0)
(0.00611227 -0.000349176 -5.17815e-22)
(0.00643514 -0.000317056 5.21566e-22)
(0.00672916 -0.000286353 5.37259e-22)
(0.00699525 -0.000256577 -5.42023e-22)
(0.00723382 -0.000227193 0)
(0.00744491 -0.000197328 0)
(0.00762708 -0.000166331 -4.64551e-21)
(0.00777996 -0.000132015 4.69986e-21)
(0.0078956 -9.46619e-05 0)
(0.00798267 -4.80338e-05 4.96618e-21)
(0.00437047 -0.000780272 0)
(0.00486133 -0.000720889 0)
(0.00532468 -0.000667178 0)
(0.00575248 -0.000614066 0)
(0.00614815 -0.000564 0)
(0.00651252 -0.000516479 0)
(0.00684732 -0.000471585 0)
(0.00715382 -0.000428923 0)
(0.00743315 -0.000388051 0)
(0.00768607 -0.00034834 0)
(0.00791286 -0.000309061 0)
(0.00811342 -0.000269126 0)
(0.00828643 -0.000227525 0)
(0.00843116 -0.000181785 0)
(0.00854066 -0.000131398 0)
(0.00862325 -6.93672e-05 0)
(0.00561166 -0.00101237 -1.4599e-20)
(0.00604704 -0.00093768 1.43516e-20)
(0.00645915 -0.000868448 7.34518e-21)
(0.00684187 -0.000800912 -1.46604e-20)
(0.00719678 -0.000736728 1.10501e-20)
(0.00752455 -0.000675749 -3.69793e-21)
(0.00782638 -0.000617947 0)
(0.00810318 -0.000562878 0)
(0.00835571 -0.000509961 0)
(0.00858445 -0.00045841 0)
(0.00878948 -0.000407273 0)
(0.00897051 -0.000355226 7.95313e-21)
(0.00912628 -0.00030082 -7.97873e-21)
(0.00925577 -0.000241343 -8.16466e-21)
(0.00935298 -0.000175182 8.20999e-21)
(0.00942676 -9.4898e-05 1.6868e-20)
(0.00735449 -0.00126576 0)
(0.00770434 -0.0011759 -1.35113e-20)
(0.00803706 -0.0010907 -2.25782e-22)
(0.00834893 -0.00100825 1.33693e-20)
(0.00863972 -0.000929293 0)
(0.00890958 -0.000853983 0)
(0.00915901 -0.000782247 0)
(0.0093884 -0.000713603 0)
(0.00959803 -0.000647343 0)
(0.00978797 -0.000582523 0)
(0.00995798 -0.00051796 0)
(0.0101075 -0.000452082 1.43006e-20)
(0.0102354 -0.000382991 -1.43075e-20)
(0.0103404 -0.00030773 0)
(0.0104174 -0.000223497 0)
(0.010477 -0.000122647 0)
(0.00975641 -0.00150592 2.29033e-20)
(0.00998729 -0.00140454 -2.33643e-20)
(0.0102087 -0.00130626 2.30376e-20)
(0.0104199 -0.00121114 -1.17478e-20)
(0.0106193 -0.00111934 1.1631e-20)
(0.010806 -0.00103113 -5.92151e-21)
(0.0109798 -0.000946464 8.85499e-21)
(0.0111405 -0.00086487 -2.95768e-21)
(0.0112878 -0.000785556 -3.00811e-21)
(0.0114211 -0.000707446 9.05063e-21)
(0.01154 -0.000629167 -6.03636e-21)
(0.0116436 -0.000548931 1.22805e-20)
(0.0117306 -0.000464472 1.24926e-20)
(0.0118001 -0.000372611 2.24808e-22)
(0.0118479 -0.000269598 -2.49944e-20)
(0.0118873 -0.000147749 2.55009e-20)
(0.0129163 -0.00166799 -3.66822e-20)
(0.0130037 -0.00156384 0)
(0.0130887 -0.00146055 0)
(0.0131746 -0.0013597 1.90177e-20)
(0.0132591 -0.00126132 -1.88773e-20)
(0.0133403 -0.00116568 -9.6256e-21)
(0.0134174 -0.00107282 9.5718e-21)
(0.0134896 -0.000982327 0)
(0.0135561 -0.000893388 0)
(0.0136159 -0.000804889 9.86961e-21)
(0.0136681 -0.000715374 -9.84102e-21)
(0.0137119 -0.000622964 -2.00075e-20)
(0.0137461 -0.000525256 -1.78269e-22)
(0.0137699 -0.000419044 2.01277e-20)
(0.0137806 -0.000300242 0)
(0.0137954 -0.000161456 -4.12438e-20)
(0.0167032 -0.00167311 5.58498e-20)
(0.0166575 -0.00157763 -5.56654e-20)
(0.0166125 -0.00148092 -2.86417e-20)
(0.0165758 -0.00138512 2.85512e-20)
(0.0165457 -0.00129037 0)
(0.01652 -0.0011969 0)
(0.0164975 -0.00110474 0)
(0.0164774 -0.00101352 0)
(0.0164588 -0.000922491 0)
(0.0164407 -0.00083058 0)
(0.0164221 -0.000736423 -1.53882e-20)
(0.0164023 -0.000638286 1.53641e-20)
(0.0163805 -0.000534008 0)
(0.0163568 -0.00042085 -3.14266e-20)
(0.0163296 -0.000295372 3.1393e-20)
(0.0163217 -0.000151245 0)
(0.0205719 -0.00146425 0)
(0.0204552 -0.00138594 4.08145e-20)
(0.0203376 -0.00130637 -4.08938e-20)
(0.0202306 -0.0012268 -2.10861e-20)
(0.020133 -0.00114716 2.1113e-20)
(0.0200427 -0.00106734 0)
(0.0199587 -0.000987187 0)
(0.0198805 -0.000906299 0)
(0.0198076 -0.000824029 0)
(0.0197394 -0.000739521 0)
(0.0196754 -0.000651727 2.28107e-20)
(0.0196154 -0.000559408 -2.28039e-20)
(0.0195592 -0.000461149 0)
(0.0195076 -0.000355351 0)
(0.0194596 -0.000240349 0)
(0.0194429 -0.000111938 4.69066e-20)
(0.00220908 -6.45874e-07 -2.69739e-21)
(0.00214786 -1.93907e-06 2.65503e-21)
(0.00210362 -2.38019e-06 2.73401e-21)
(0.00203272 -2.77746e-06 0)
(0.00194625 -2.37499e-06 0)
(0.00166832 4.36872e-05 -5.50027e-21)
(0.00156055 0.000334533 -2.38114e-18)
(0.00174553 0.000739727 2.74099e-21)
(0.00198752 0.00120146 -1.30571e-21)
(0.00239107 0.00171057 1.03998e-17)
(0.00286562 0.00214922 5.28964e-18)
(0.00321422 0.0024746 -5.13588e-18)
(0.00360856 0.00291482 -4.72454e-18)
(0.00482339 0.00377872 -4.05461e-18)
(0.0080429 0.00485338 -2.10572e-22)
(0.0102004 0.00278436 1.55884e-20)
(0.00662929 0.000151806 0)
(0.00442126 5.0592e-06 -1.50837e-21)
(0.00434741 6.29753e-06 -1.5313e-21)
(0.0042601 9.53203e-06 0)
(0.00408507 1.49317e-05 3.14031e-21)
(0.00382803 2.79154e-05 4.37215e-23)
(0.00316798 0.000118921 -5.59549e-21)
(0.00275017 0.000581822 2.33952e-21)
(0.00297296 0.00122429 6.76067e-22)
(0.00343537 0.00202122 -2.39685e-18)
(0.00428102 0.00301889 -4.4891e-21)
(0.00538933 0.00405426 -2.83765e-18)
(0.00643108 0.00500734 2.99267e-18)
(0.00760917 0.00623178 5.93878e-18)
(0.0102105 0.00828942 2.77096e-18)
(0.0161195 0.0105831 -2.09509e-18)
(0.0215296 0.00681926 2.15195e-23)
(0.0178628 0.00101406 0)
(0.0054029 7.998e-06 0)
(0.00533554 1.33836e-05 -4.90155e-21)
(0.00523783 2.25596e-05 6.67258e-21)
(0.00503035 3.67951e-05 -2.23514e-23)
(0.00471244 6.93516e-05 -1.13405e-20)
(0.00396081 0.000191471 -3.22588e-21)
(0.0034331 0.000734755 2.84994e-21)
(0.00363602 0.00146923 6.64694e-19)
(0.00416165 0.00238684 1.30216e-18)
(0.00513829 0.00352711 -1.33211e-18)
(0.00644543 0.00473659 -1.37259e-21)
(0.00776902 0.00592893 0)
(0.00932374 0.00745728 -1.42628e-18)
(0.0124022 0.00974029 0)
(0.0186835 0.011798 9.54088e-19)
(0.0252103 0.00769393 2.04901e-23)
(0.0231629 0.00128825 0)
(0.00601477 1.05613e-05 -2.16494e-21)
(0.00595509 2.18679e-05 -4.40189e-21)
(0.00585724 3.94083e-05 -4.54307e-21)
(0.0056437 6.61788e-05 -9.20308e-21)
(0.00530916 0.000125369 2.47774e-20)
(0.00456259 0.000279224 2.3005e-21)
(0.00400221 0.000867861 1.04475e-18)
(0.00417932 0.00164722 1.93538e-21)
(0.00473132 0.00262364 -9.25757e-19)
(0.00575733 0.00381516 8.89717e-19)
(0.00713042 0.00508189 -8.84198e-19)
(0.00857209 0.00637129 -1.74989e-21)
(0.0103158 0.00800301 -8.30034e-19)
(0.0135534 0.0102173 2.13362e-22)
(0.019638 0.0118348 1.26413e-22)
(0.026009 0.00767193 1.84053e-20)
(0.0249158 0.00141677 1.49026e-20)
(0.00650981 1.27928e-05 1.73334e-21)
(0.00645725 3.22961e-05 -1.99714e-23)
(0.00636308 6.11881e-05 3.58387e-21)
(0.00615398 0.000104887 -1.10476e-20)
(0.00582198 0.00019742 -1.09448e-20)
(0.00511908 0.000387272 0)
(0.00456844 0.00100475 -3.97681e-21)
(0.00472727 0.00180776 3.21743e-21)
(0.00529862 0.00281573 -7.57928e-19)
(0.00635143 0.00402364 -1.41309e-18)
(0.00775147 0.00530889 6.77937e-19)
(0.00926337 0.00664703 0)
(0.0111472 0.00830921 1.1799e-18)
(0.0144802 0.0103738 -4.91539e-22)
(0.020306 0.0115723 -3.06017e-19)
(0.0262467 0.00747681 -3.0049e-20)
(0.0256136 0.00157174 -1.71245e-20)
(0.00697558 1.44146e-05 -2.99006e-21)
(0.00692951 4.47532e-05 -2.99763e-21)
(0.0068412 8.82711e-05 -3.0904e-21)
(0.00664262 0.000153538 1.91022e-20)
(0.0063247 0.000284617 -1.26726e-20)
(0.00568659 0.000515816 6.77915e-20)
(0.00517681 0.00115293 -4.16583e-19)
(0.00533056 0.00196849 3.77866e-19)
(0.005923 0.00299095 6.65444e-19)
(0.00699566 0.00419586 1.2199e-18)
(0.00841091 0.00548056 0)
(0.00998232 0.00684239 2.0128e-21)
(0.0119974 0.00849109 -9.37652e-19)
(0.0154056 0.0103532 3.62414e-19)
(0.0209382 0.0111322 4.72545e-19)
(0.0263419 0.00718385 1.40572e-20)
(0.0259902 0.00172955 5.6891e-21)
(0.00745764 1.50547e-05 1.07726e-20)
(0.0074172 5.92583e-05 1.09135e-20)
(0.00733654 0.000120981 6.8055e-23)
(0.00715361 0.000212666 1.71971e-20)
(0.00685946 0.000386032 0)
(0.00630083 0.000664028 -9.80309e-20)
(0.00585856 0.00131439 0)
(0.00602556 0.00213565 -6.74991e-19)
(0.0066462 0.00315881 -4.72231e-21)
(0.00773819 0.00434657 -5.22518e-21)
(0.00916725 0.00561729 -3.93799e-21)
(0.0108006 0.00698127 0)
(0.0129453 0.00857409 4.00667e-19)
(0.0164013 0.0101824 -3.12485e-19)
(0.0215856 0.0105395 -1.99907e-19)
(0.0263782 0.00681177 0)
(0.0262434 0.00188492 0)
(0.00799419 1.43838e-05 -1.48577e-20)
(0.00795808 7.58953e-05 -2.01259e-20)
(0.00788695 0.000159666 1.02358e-20)
(0.00772495 0.000282558 -1.04239e-20)
(0.0074643 0.00050025 -2.09881e-20)
(0.00699657 0.000828856 5.57785e-20)
(0.0066457 0.00148687 0)
(0.00684891 0.00230837 6.33746e-19)
(0.00750937 0.00331943 2.70795e-19)
(0.00862465 0.0044776 -4.86638e-19)
(0.0100725 0.00572097 -4.51554e-19)
(0.0117753 0.0070605 -1.7328e-22)
(0.0140419 0.00854675 -2.79786e-21)
(0.017496 0.00984886 0)
(0.0222575 0.00979843 -1.64058e-19)
(0.0263867 0.00637285 5.07812e-23)
(0.0264428 0.00203297 3.81007e-22)
(0.00862924 1.22154e-05 -1.83681e-20)
(0.0085957 9.47563e-05 9.30424e-21)
(0.00853621 0.000204426 -1.89929e-20)
(0.00840103 0.00036248 0)
(0.00818452 0.000624241 1.93705e-20)
(0.00781719 0.00100334 -2.00711e-20)
(0.00758011 0.00166342 0)
(0.00784468 0.00247859 -2.04565e-20)
(0.00855953 0.00346466 -2.93224e-21)
(0.00970542 0.00458035 1.43434e-20)
(0.0111806 0.00577853 1.48199e-20)
(0.0129578 0.00705606 -5.85146e-21)
(0.01532 0.00837456 2.21486e-21)
(0.0186931 0.00932565 -1.60432e-21)
(0.0229453 0.00891576 8.07876e-20)
(0.0263895 0.0058771 0)
(0.0266209 0.00216429 -3.37462e-22)
(0.00942165 8.71688e-06 8.71252e-23)
(0.00938881 0.000115972 3.41276e-20)
(0.00934349 0.00025495 1.75463e-20)
(0.00924178 0.000450043 -5.26335e-20)
(0.00908113 0.000752376 3.44726e-20)
(0.00882286 0.00117516 -1.07585e-19)
(0.00872039 0.00183024 3.45472e-20)
(0.00907061 0.00262919 -2.5844e-19)
(0.00985398 0.00357584 -2.03293e-19)
(0.0110379 0.00463277 3.81075e-19)
(0.0125463 0.00575868 3.85586e-19)
(0.0143885 0.00692289 -1.04865e-20)
(0.0167885 0.00800858 -2.66502e-19)
(0.0199711 0.00858944 -6.86031e-22)
(0.0236323 0.00791265 7.20602e-20)
(0.0264105 0.00533315 -1.195e-22)
(0.0267969 0.00226133 1.28379e-22)
(0.0104538 4.85893e-06 -1.49066e-20)
(0.0104189 0.000139549 3.0384e-20)
(0.0103935 0.000310193 -3.04939e-20)
(0.0103326 0.000540961 0)
(0.0102401 0.000875551 0)
(0.0100998 0.00132598 6.18318e-20)
(0.0101479 0.0019639 -2.35683e-19)
(0.0106042 0.00273137 5.47831e-20)
(0.0114627 0.0036203 -2.46472e-19)
(0.0126836 0.00459476 -3.63745e-19)
(0.0142154 0.00560899 1.58898e-19)
(0.0160821 0.00659966 -1.3112e-19)
(0.0184227 0.007402 3.54366e-19)
(0.0212881 0.00764016 -9.20638e-20)
(0.0243053 0.0068283 6.84884e-20)
(0.0264798 0.0047482 1.55753e-22)
(0.0269871 0.0023003 -1.6435e-22)
(0.0118384 2.85224e-06 -3.83263e-20)
(0.0117998 0.000164873 -1.35082e-20)
(0.0118024 0.000366467 1.03722e-19)
(0.0117972 0.000628975 5.18952e-22)
(0.0117836 0.000982508 -1.02267e-19)
(0.0117724 0.00143325 5.06984e-20)
(0.0119813 0.0020317 1.94101e-19)
(0.0125456 0.00274474 0)
(0.0134633 0.00355082 1.66895e-19)
(0.0146946 0.00440934 1.84529e-19)
(0.0162056 0.00526447 -1.74391e-19)
(0.0180126 0.00603014 2.42413e-19)
(0.0201644 0.00653897 -5.28409e-21)
(0.0225977 0.00651757 1.66761e-19)
(0.0249691 0.0057143 -6.37777e-20)
(0.0266328 0.00412868 -8.69567e-22)
(0.0272132 0.0022564 -1.18765e-20)
(0.013715 5.44758e-06 -2.09049e-20)
(0.0136744 0.000188579 8.32981e-20)
(0.0137156 0.000411965 -8.28494e-20)
(0.0137855 0.000692449 -4.17995e-20)
(0.0138867 0.00104611 2.01959e-19)
(0.0140258 0.0014704 -7.90653e-20)
(0.0143614 0.00200461 -7.27996e-20)
(0.014994 0.00263182 -7.01866e-20)
(0.0159131 0.00332046 1.28239e-19)
(0.0170846 0.00402392 -3.47169e-20)
(0.0184849 0.0046805 -8.0379e-20)
(0.0201108 0.00520355 -4.83547e-21)
(0.0219441 0.00546372 -1.75586e-19)
(0.0238777 0.00530211 -7.52213e-20)
(0.0256567 0.00462275 -6.52872e-20)
(0.0269093 0.0034831 3.04285e-20)
(0.0275101 0.00211204 2.50162e-20)
(0.01621 1.54327e-05 0)
(0.0161722 0.000203569 -1.59392e-20)
(0.0162575 0.000427841 -3.1781e-20)
(0.0164048 0.000698349 -1.40434e-22)
(0.0166128 0.00102253 -3.06291e-20)
(0.0168878 0.00139702 0)
(0.0173127 0.00184696 1.12792e-19)
(0.017945 0.00235734 1.04398e-19)
(0.0187753 0.00289584 -2.04136e-19)
(0.0197853 0.00341738 -9.73499e-20)
(0.0209622 0.00386674 4.84442e-20)
(0.0222898 0.00417809 -6.0789e-20)
(0.0237197 0.00427599 9.47394e-20)
(0.0251527 0.00408863 -3.90972e-21)
(0.0264295 0.00359144 6.49388e-20)
(0.0273574 0.00281933 -2.6666e-20)
(0.0279384 0.00185746 -2.81839e-20)
(0.0193119 2.83295e-05 -1.39121e-19)
(0.0192787 0.000198617 1.06036e-19)
(0.0193904 0.000399959 0)
(0.0195825 0.000635864 -1.12753e-19)
(0.0198471 0.000909484 8.76362e-20)
(0.0201876 0.00122044 -4.13474e-20)
(0.0206157 0.00157763 -7.97771e-20)
(0.0211567 0.00196333 1.55021e-19)
(0.0218104 0.00234855 -2.60528e-21)
(0.0225786 0.00269816 7.09385e-20)
(0.0234624 0.00297343 -3.96205e-21)
(0.0244456 0.00313627 -2.73111e-21)
(0.0254774 0.00315341 0)
(0.0264832 0.00299824 -7.11927e-21)
(0.0273696 0.00266305 7.6688e-21)
(0.0280498 0.00214908 0)
(0.0285711 0.00150453 2.56499e-20)
(0.0295031 0.000732876 1.4481e-20)
(0.029563 0.000303642 -8.44837e-22)
(0.0294546 -0.000117791 0)
(0.0291566 -0.00051534 -5.02014e-20)
(0.0287074 -0.000856307 0)
(0.0281683 -0.00112085 -2.59496e-20)
(0.0276006 -0.00131048 0)
(0.0270382 -0.00144132 -4.01961e-20)
(0.0264902 -0.00152889 -2.83289e-20)
(0.0259593 -0.00158139 -4.37631e-20)
(0.0254511 -0.00160104 6.06313e-20)
(0.0249838 -0.00158804 -6.15377e-20)
(0.0245711 -0.00155087 6.45147e-20)
(0.0242211 -0.00149705 -1.58431e-20)
(0.0239336 -0.00143212 -3.39162e-20)
(0.0236758 -0.00136242 0)
(0.0235961 -0.00127721 0)
(0.0301184 0.000585611 -1.65312e-20)
(0.0302063 0.00027551 -5.07149e-21)
(0.0301698 -2.35953e-05 0)
(0.0299997 -0.000308778 4.84223e-20)
(0.0297151 -0.000565076 0)
(0.0293504 -0.000778055 3.13612e-20)
(0.0289469 -0.000941772 8.20205e-21)
(0.0285317 -0.00106173 -8.13331e-21)
(0.0281155 -0.00114766 0)
(0.0277026 -0.00120687 -3.47125e-20)
(0.0272983 -0.00124266 -3.54245e-20)
(0.026915 -0.00125505 3.64073e-20)
(0.0265666 -0.00124594 -3.75858e-20)
(0.0262626 -0.00121873 -3.90975e-20)
(0.026006 -0.00117719 1.98105e-20)
(0.0257795 -0.00112414 -1.03126e-20)
(0.0256705 -0.0010517 0)
(0.0304735 0.000462081 -6.94723e-22)
(0.0305794 0.000231783 6.98267e-21)
(0.0305839 1.15827e-05 -6.78308e-22)
(0.0304861 -0.000202286 -2.03475e-20)
(0.0302989 -0.000401052 0)
(0.0300429 -0.000573049 0)
(0.0297452 -0.000710793 -4.51758e-20)
(0.0294268 -0.000815658 2.53371e-20)
(0.0290986 -0.000893877 -3.11236e-20)
(0.0287668 -0.000951019 4.18151e-20)
(0.028437 -0.000989956 -3.1935e-20)
(0.0281189 -0.00101064 -3.26428e-20)
(0.0278223 -0.00101326 1.13984e-20)
(0.0275548 -0.000999072 0)
(0.0273198 -0.000970213 -2.42768e-20)
(0.0271083 -0.000928438 3.67904e-20)
(0.0269725 -0.000865308 3.67827e-20)
(0.0305938 0.000361514 0)
(0.0307154 0.000186311 -2.70654e-21)
(0.0307487 2.01714e-05 -1.54108e-20)
(0.0306992 -0.000144074 2.43608e-21)
(0.0305769 -0.000299884 -1.56115e-21)
(0.030394 -0.000437529 0)
(0.0301683 -0.000549842 4.92648e-20)
(0.0299158 -0.000636849 -2.49185e-20)
(0.0296474 -0.000703156 2.5268e-20)
(0.0293706 -0.000753285 1.91384e-20)
(0.0290916 -0.000789635 7.18893e-20)
(0.028818 -0.000811873 -1.31553e-20)
(0.0285571 -0.000819361 -4.12283e-20)
(0.0283147 -0.00081224 1.37454e-20)
(0.0280938 -0.000791651 1.45674e-20)
(0.0278907 -0.000759141 -7.14478e-21)
(0.0277336 -0.00070454 -2.95634e-20)
(0.0305048 0.000277301 0)
(0.0306428 0.00014322 1.66633e-21)
(0.0306999 1.72269e-05 1.76764e-20)
(0.0306876 -0.000110222 1.02541e-21)
(0.030614 -0.00023321 -2.96816e-21)
(0.0304852 -0.000343212 3.29807e-20)
(0.0303121 -0.000433622 0)
(0.0301072 -0.000504116 -3.11519e-20)
(0.0298814 -0.000558597 -3.98012e-21)
(0.0296433 -0.00060096 3.57384e-20)
(0.0293996 -0.000633186 -3.22486e-20)
(0.029157 -0.000654593 1.64545e-20)
(0.0289209 -0.000663999 1.68624e-20)
(0.0286957 -0.000660873 -3.47271e-20)
(0.0284841 -0.00064569 1.79357e-20)
(0.0282864 -0.00062038 1.84251e-20)
(0.0281123 -0.000571802 0)
(0.0302083 0.000206026 0)
(0.0303658 0.000103846 3.23783e-21)
(0.0304472 8.66921e-06 1.06594e-20)
(0.0304693 -9.05309e-05 0)
(0.0304384 -0.000187938 -1.26251e-21)
(0.0303552 -0.000275805 -4.04948e-20)
(0.0302253 -0.000347928 4.89467e-21)
(0.0300589 -0.000403995 1.96337e-20)
(0.0298669 -0.000447681 1.73508e-20)
(0.0296589 -0.000482556 -5.99563e-20)
(0.0294422 -0.000510294 1.51304e-20)
(0.0292228 -0.000529859 -1.55437e-20)