/*--------------------------------*- C++ -*----------------------------------*\
| =========                 |                                                 |
| \\      /  F ield         | OpenFOAM: The Open Source CFD Toolbox           |
|  \\    /   O peration     | Version:  2.3.1                                 |
|   \\  /    A nd           | Web:      www.OpenFOAM.org                      |
|    \\/     M anipulation  |                                                 |
\*---------------------------------------------------------------------------*/
FoamFile
{
    version     2.0;
    format      ascii;
    class       volScalarField;
    location    "10000";
    object      epsilon;
}
// * * * * * * * * * * * * * * * * * * * * * * * * * * * * * * * * * * * * * //

dimensions      [0 2 -3 0 0 0 0];

internalField   nonuniform List<scalar> 
14751
(
2.76931e-09
2.87327e-09
2.98667e-09
3.09897e-09
3.21482e-09
3.33312e-09
3.45202e-09
3.57357e-09
3.69642e-09
3.82206e-09
3.94919e-09
4.07897e-09
4.21049e-09
4.34312e-09
4.47765e-09
4.61326e-09
4.7504e-09
4.88778e-09
5.0265e-09
5.16581e-09
5.30659e-09
5.44852e-09
5.59169e-09
5.73587e-09
5.88192e-09
6.02952e-09
6.17844e-09
6.32888e-09
6.48034e-09
6.63306e-09
6.78713e-09
6.94244e-09
7.09896e-09
7.25647e-09
7.41478e-09
7.57395e-09
7.73315e-09
7.89259e-09
8.05163e-09
8.21028e-09
8.36748e-09
8.52334e-09
8.67803e-09
8.83022e-09
8.98e-09
9.12655e-09
9.26924e-09
9.40759e-09
9.54057e-09
9.66742e-09
9.78721e-09
9.89889e-09
1.00015e-08
1.00935e-08
1.01735e-08
1.02402e-08
1.02921e-08
1.03273e-08
1.03393e-08
1.03226e-08
1.02727e-08
1.01822e-08
1.00437e-08
9.84979e-09
9.59222e-09
9.26626e-09
8.8696e-09
8.40428e-09
7.87671e-09
7.30016e-09
6.69281e-09
6.07579e-09
5.4712e-09
4.89868e-09
4.37375e-09
3.90654e-09
3.50159e-09
3.15866e-09
2.87446e-09
2.64397e-09
2.46066e-09
2.31694e-09
2.2073e-09
2.1251e-09
2.06639e-09
2.02739e-09
2.00564e-09
1.99921e-09
2.0066e-09
2.02655e-09
2.05831e-09
2.10096e-09
2.15412e-09
2.21744e-09
2.2899e-09
2.37185e-09
2.46084e-09
2.55604e-09
2.65657e-09
1.43785e-08
1.48879e-08
1.54455e-08
1.59978e-08
1.65684e-08
1.7151e-08
1.77354e-08
1.83292e-08
1.89287e-08
1.95396e-08
2.01574e-08
2.07865e-08
2.14237e-08
2.20666e-08
2.27186e-08
2.33764e-08
2.40413e-08
2.47077e-08
2.53803e-08
2.60563e-08
2.67392e-08
2.74275e-08
2.81217e-08
2.88212e-08
2.95295e-08
3.02451e-08
3.0967e-08
3.16958e-08
3.24298e-08
3.317e-08
3.3917e-08
3.46703e-08
3.54298e-08
3.61944e-08
3.69634e-08
3.77366e-08
3.85108e-08
3.92868e-08
4.00618e-08
4.08351e-08
4.16026e-08
4.23651e-08
4.3123e-08
4.3871e-08
4.4609e-08
4.5333e-08
4.604e-08
4.67277e-08
4.73915e-08
4.80277e-08
4.86317e-08
4.91985e-08
4.97232e-08
5.01988e-08
5.06179e-08
5.0973e-08
5.1257e-08
5.14579e-08
5.15459e-08
5.14949e-08
5.1281e-08
5.08681e-08
5.022e-08
4.92993e-08
4.80664e-08
4.64975e-08
4.45801e-08
4.23216e-08
3.97516e-08
3.69318e-08
3.39484e-08
3.09038e-08
2.79071e-08
2.50578e-08
2.24376e-08
2.01026e-08
1.80799e-08
1.63688e-08
1.49515e-08
1.38008e-08
1.28834e-08
1.21612e-08
1.16078e-08
1.11913e-08
1.08928e-08
1.06937e-08
1.05821e-08
1.05483e-08
1.05845e-08
1.06844e-08
1.08439e-08
1.1058e-08
1.13245e-08
1.16413e-08
1.20026e-08
1.24102e-08
1.28517e-08
1.33235e-08
1.38213e-08
3.49199e-08
3.60895e-08
3.74097e-08
3.8753e-08
4.0172e-08
4.1643e-08
4.31349e-08
4.46684e-08
4.6229e-08
4.78155e-08
4.94318e-08
5.10874e-08
5.27771e-08
5.44947e-08
5.62466e-08
5.80267e-08
5.98343e-08
6.16568e-08
6.35036e-08
6.53687e-08
6.72576e-08
6.9167e-08
7.10971e-08
7.30465e-08
7.5022e-08
7.70197e-08
7.9038e-08
8.10773e-08
8.31335e-08
8.52089e-08
8.73043e-08
8.94183e-08
9.15505e-08
9.36983e-08
9.5859e-08
9.80315e-08
1.00208e-07
1.02392e-07
1.04573e-07
1.06751e-07
1.08914e-07
1.11065e-07
1.13203e-07
1.15316e-07
1.174e-07
1.19446e-07
1.21445e-07
1.23388e-07
1.25265e-07
1.27066e-07
1.28778e-07
1.30387e-07
1.31879e-07
1.33233e-07
1.34428e-07
1.35443e-07
1.36253e-07
1.36825e-07
1.37078e-07
1.36943e-07
1.36349e-07
1.35201e-07
1.33399e-07
1.30843e-07
1.27434e-07
1.23109e-07
1.17845e-07
1.11673e-07
1.04689e-07
9.70702e-08
8.90591e-08
8.09321e-08
7.29754e-08
6.54454e-08
5.85491e-08
5.24281e-08
4.71479e-08
4.26988e-08
3.90202e-08
3.6013e-08
3.35996e-08
3.16779e-08
3.01809e-08
2.9028e-08
2.81719e-08
2.75651e-08
2.71764e-08
2.69802e-08
2.69564e-08
2.70871e-08
2.73606e-08
2.77631e-08
2.82888e-08
2.89324e-08
2.96811e-08
3.05423e-08
3.14901e-08
3.25253e-08
3.36431e-08
7.07527e-08
7.30904e-08
7.58391e-08
7.87268e-08
8.18483e-08
8.51328e-08
8.84894e-08
9.19611e-08
9.55062e-08
9.91186e-08
1.02795e-07
1.0653e-07
1.10311e-07
1.1415e-07
1.18056e-07
1.22024e-07
1.26042e-07
1.3009e-07
1.3418e-07
1.38304e-07
1.42464e-07
1.46652e-07
1.50867e-07
1.55105e-07
1.59372e-07
1.63662e-07
1.67971e-07
1.72297e-07
1.76634e-07
1.80984e-07
1.85348e-07
1.89722e-07
1.94106e-07
1.98496e-07
2.02885e-07
2.07272e-07
2.11647e-07
2.16015e-07
2.20361e-07
2.24679e-07
2.2896e-07
2.33199e-07
2.37388e-07
2.41521e-07
2.45594e-07
2.49594e-07
2.53504e-07
2.57315e-07
2.61007e-07
2.64565e-07
2.67968e-07
2.71191e-07
2.74209e-07
2.76989e-07
2.7949e-07
2.81669e-07
2.83472e-07
2.84831e-07
2.85621e-07
2.85714e-07
2.84976e-07
2.83232e-07
2.80289e-07
2.75951e-07
2.7001e-07
2.62307e-07
2.52734e-07
2.41277e-07
2.28035e-07
2.13271e-07
1.97391e-07
1.80912e-07
1.64417e-07
1.4847e-07
1.33558e-07
1.20039e-07
1.08115e-07
9.78369e-08
8.91481e-08
8.19025e-08
7.5944e-08
7.10871e-08
6.72285e-08
6.41794e-08
6.18293e-08
6.00597e-08
5.87907e-08
5.79581e-08
5.75105e-08
5.74018e-08
5.7602e-08
5.80765e-08
5.88121e-08
5.9799e-08
6.1013e-08
6.24802e-08
6.41561e-08
6.60645e-08
6.82104e-08
1.27401e-07
1.31021e-07
1.35454e-07
1.40216e-07
1.45437e-07
1.50966e-07
1.56601e-07
1.6241e-07
1.68304e-07
1.74257e-07
1.80254e-07
1.86282e-07
1.9231e-07
1.98333e-07
2.04337e-07
2.10292e-07
2.16221e-07
2.221e-07
2.27938e-07
2.33727e-07
2.39457e-07
2.4512e-07
2.50716e-07
2.5624e-07
2.617e-07
2.67094e-07
2.72423e-07
2.7769e-07
2.82895e-07
2.88045e-07
2.93145e-07
2.98198e-07
3.03211e-07
3.08185e-07
3.1312e-07
3.18018e-07
3.22876e-07
3.27692e-07
3.32474e-07
3.37225e-07
3.41938e-07
3.46615e-07
3.51253e-07
3.5585e-07
3.60405e-07
3.64911e-07
3.69359e-07
3.73742e-07
3.78045e-07
3.82258e-07
3.86363e-07
3.90338e-07
3.94162e-07
3.97805e-07
4.01226e-07
4.0438e-07
4.07203e-07
4.09622e-07
4.11544e-07
4.12848e-07
4.13401e-07
4.13035e-07
4.11554e-07
4.08746e-07
4.04369e-07
3.98184e-07
3.89964e-07
3.79517e-07
3.66717e-07
3.51553e-07
3.34165e-07
3.14868e-07
2.9417e-07
2.72736e-07
2.5132e-07
2.30664e-07
2.11386e-07
1.93906e-07
1.78447e-07
1.65029e-07
1.53583e-07
1.43913e-07
1.35841e-07
1.29206e-07
1.2388e-07
1.1965e-07
1.16371e-07
1.13925e-07
1.12212e-07
1.11138e-07
1.10641e-07
1.10647e-07
1.11129e-07
1.12069e-07
1.13422e-07
1.15251e-07
1.17482e-07
1.20193e-07
1.23405e-07
1.96182e-07
2.00001e-07
2.04865e-07
2.10118e-07
2.15859e-07
2.21874e-07
2.27854e-07
2.33873e-07
2.39816e-07
2.45642e-07
2.51337e-07
2.56891e-07
2.62281e-07
2.67506e-07
2.72571e-07
2.77464e-07
2.82213e-07
2.86808e-07
2.91267e-07
2.95589e-07
2.998e-07
3.03913e-07
3.07937e-07
3.11883e-07
3.15764e-07
3.1959e-07
3.23372e-07
3.27118e-07
3.30839e-07
3.34541e-07
3.38235e-07
3.41926e-07
3.45619e-07
3.49321e-07
3.53037e-07
3.56772e-07
3.60528e-07
3.64305e-07
3.6811e-07
3.71945e-07
3.75808e-07
3.79699e-07
3.83618e-07
3.87563e-07
3.91532e-07
3.95524e-07
3.99533e-07
4.03552e-07
4.07574e-07
4.1159e-07
4.15587e-07
4.19551e-07
4.23464e-07
4.27305e-07
4.31045e-07
4.34647e-07
4.38066e-07
4.4124e-07
4.44111e-07
4.46599e-07
4.48612e-07
4.50036e-07
4.50738e-07
4.50568e-07
4.49353e-07
4.46911e-07
4.43057e-07
4.37613e-07
4.3042e-07
4.21362e-07
4.10394e-07
3.9756e-07
3.8302e-07
3.67051e-07
3.50048e-07
3.32486e-07
3.14864e-07
2.97653e-07
2.81259e-07
2.65969e-07
2.52001e-07
2.39424e-07
2.2829e-07
2.1857e-07
2.10182e-07
2.03093e-07
1.97228e-07
1.92481e-07
1.88754e-07
1.85926e-07
1.8392e-07
1.8263e-07
1.82017e-07
1.82057e-07
1.82676e-07
1.83977e-07
1.85848e-07
1.88429e-07
1.91746e-07
2.49612e-07
2.51863e-07
2.5491e-07
2.58205e-07
2.61765e-07
2.65442e-07
2.68961e-07
2.7239e-07
2.75661e-07
2.78757e-07
2.81688e-07
2.8447e-07
2.87107e-07
2.89619e-07
2.92025e-07
2.94338e-07
2.96585e-07
2.98774e-07
3.00924e-07
3.03047e-07
3.0516e-07
3.0728e-07
3.09416e-07
3.11578e-07
3.13774e-07
3.16013e-07
3.183e-07
3.20643e-07
3.23045e-07
3.25509e-07
3.28039e-07
3.30638e-07
3.33308e-07
3.36049e-07
3.38865e-07
3.41757e-07
3.44724e-07
3.47765e-07
3.50881e-07
3.54072e-07
3.57338e-07
3.60675e-07
3.64082e-07
3.67557e-07
3.71097e-07
3.747e-07
3.78361e-07
3.82076e-07
3.85839e-07
3.89641e-07
3.93474e-07
3.97327e-07
4.01186e-07
4.05036e-07
4.08854e-07
4.12615e-07
4.16286e-07
4.19824e-07
4.23182e-07
4.26303e-07
4.29121e-07
4.31563e-07
4.33534e-07
4.34933e-07
4.35644e-07
4.3554e-07
4.34498e-07
4.32396e-07
4.2913e-07
4.24615e-07
4.18811e-07
4.11723e-07
4.03418e-07
3.94023e-07
3.83725e-07
3.7275e-07
3.61349e-07
3.4977e-07
3.38249e-07
3.26984e-07
3.16159e-07
3.05896e-07
2.96315e-07
2.87491e-07
2.79477e-07
2.72319e-07
2.66025e-07
2.60567e-07
2.55933e-07
2.5209e-07
2.49002e-07
2.46578e-07
2.4479e-07
2.43628e-07
2.42996e-07
2.43014e-07
2.43543e-07
2.44754e-07
2.46658e-07
2.69712e-07
2.69954e-07
2.70488e-07
2.71095e-07
2.71734e-07
2.72404e-07
2.72962e-07
2.7346e-07
2.73899e-07
2.74285e-07
2.74644e-07
2.74999e-07
2.7537e-07
2.75775e-07
2.76232e-07
2.76755e-07
2.77355e-07
2.78043e-07
2.78823e-07
2.79701e-07
2.8068e-07
2.81767e-07
2.82963e-07
2.84269e-07
2.85686e-07
2.87213e-07
2.8885e-07
2.90595e-07
2.92447e-07
2.94405e-07
2.96465e-07
2.98628e-07
3.00891e-07
3.03251e-07
3.05708e-07
3.0826e-07
3.10906e-07
3.13642e-07
3.16467e-07
3.1938e-07
3.22378e-07
3.25458e-07
3.28618e-07
3.31856e-07
3.35168e-07
3.38552e-07
3.42003e-07
3.45517e-07
3.49089e-07
3.52712e-07
3.56379e-07
3.60079e-07
3.63802e-07
3.67534e-07
3.71258e-07
3.74951e-07
3.78586e-07
3.82131e-07
3.85551e-07
3.88793e-07
3.91799e-07
3.94512e-07
3.9686e-07
3.98767e-07
4.00146e-07
4.00908e-07
4.00968e-07
4.00248e-07
3.98687e-07
3.96246e-07
3.92919e-07
3.88732e-07
3.83749e-07
3.78065e-07
3.71801e-07
3.65089e-07
3.58065e-07
3.50856e-07
3.43577e-07
3.3633e-07
3.29209e-07
3.22293e-07
3.15654e-07
3.09358e-07
3.03459e-07
2.98007e-07
2.93032e-07
2.88549e-07
2.8457e-07
2.81095e-07
2.7811e-07
2.75582e-07
2.73493e-07
2.71829e-07
2.70543e-07
2.69651e-07
2.69063e-07
2.68809e-07
2.68945e-07
2.61726e-07
2.60592e-07
2.59288e-07
2.57944e-07
2.565e-07
2.55084e-07
2.53686e-07
2.52336e-07
2.51081e-07
2.49937e-07
2.48926e-07
2.48064e-07
2.47365e-07
2.46835e-07
2.4648e-07
2.46302e-07
2.46296e-07
2.46467e-07
2.46802e-07
2.47301e-07
2.47954e-07
2.48759e-07
2.4971e-07
2.50804e-07
2.52033e-07
2.53392e-07
2.54877e-07
2.56482e-07
2.58203e-07
2.60036e-07
2.61975e-07
2.64018e-07
2.66161e-07
2.68401e-07
2.70734e-07
2.73159e-07
2.75672e-07
2.7827e-07
2.80952e-07
2.83715e-07
2.86555e-07
2.89471e-07
2.92459e-07
2.95516e-07
2.9864e-07
3.01827e-07
3.05073e-07
3.08372e-07
3.1172e-07
3.1511e-07
3.18535e-07
3.21984e-07
3.25447e-07
3.2891e-07
3.32356e-07
3.35764e-07
3.39108e-07
3.42358e-07
3.4548e-07
3.48436e-07
3.5117e-07
3.53619e-07
3.55724e-07
3.57425e-07
3.58655e-07
3.59351e-07
3.59456e-07
3.58927e-07
3.5774e-07
3.55891e-07
3.53406e-07
3.50335e-07
3.4675e-07
3.42739e-07
3.38398e-07
3.33816e-07
3.29077e-07
3.24254e-07
3.19406e-07
3.14588e-07
3.0984e-07
3.05211e-07
3.00732e-07
2.96444e-07
2.92378e-07
2.88563e-07
2.85022e-07
2.81772e-07
2.7882e-07
2.7617e-07
2.73815e-07
2.71745e-07
2.69938e-07
2.68369e-07
2.67009e-07
2.65808e-07
2.64724e-07
2.63681e-07
2.62636e-07
2.38326e-07
2.36628e-07
2.34454e-07
2.32193e-07
2.29795e-07
2.27459e-07
2.25263e-07
2.23215e-07
2.21379e-07
2.19767e-07
2.18389e-07
2.17246e-07
2.16341e-07
2.15668e-07
2.15218e-07
2.14988e-07
2.1496e-07
2.15132e-07
2.15485e-07
2.16012e-07
2.167e-07
2.17542e-07
2.18529e-07
2.19654e-07
2.20909e-07
2.22287e-07
2.23782e-07
2.25387e-07
2.27098e-07
2.28909e-07
2.30815e-07
2.32813e-07
2.34898e-07
2.37067e-07
2.39317e-07
2.41644e-07
2.44047e-07
2.46521e-07
2.49064e-07
2.51674e-07
2.54346e-07
2.57079e-07
2.59869e-07
2.62712e-07
2.65605e-07
2.68544e-07
2.71524e-07
2.74539e-07
2.77583e-07
2.80648e-07
2.83726e-07
2.86807e-07
2.89876e-07
2.9292e-07
2.9592e-07
2.98853e-07
3.01693e-07
3.04411e-07
3.06972e-07
3.09337e-07
3.11464e-07
3.13303e-07
3.14781e-07
3.15852e-07
3.16471e-07
3.16597e-07
3.16203e-07
3.15275e-07
3.13819e-07
3.11863e-07
3.09455e-07
3.06662e-07
3.0356e-07
3.00232e-07
2.96752e-07
2.93186e-07
2.89588e-07
2.86002e-07
2.82459e-07
2.7899e-07
2.75607e-07
2.72342e-07
2.69204e-07
2.66215e-07
2.63387e-07
2.60735e-07
2.5827e-07
2.56001e-07
2.53927e-07
2.52051e-07
2.50361e-07
2.48855e-07
2.47505e-07
2.46275e-07
2.45139e-07
2.44014e-07
2.42876e-07
2.41591e-07
2.40101e-07
2.09561e-07
2.07935e-07
2.05664e-07
2.03294e-07
2.008e-07
1.98396e-07
1.96197e-07
1.94196e-07
1.92456e-07
1.90981e-07
1.89768e-07
1.88808e-07
1.88097e-07
1.87621e-07
1.87366e-07
1.87323e-07
1.87471e-07
1.87807e-07
1.88309e-07
1.8897e-07
1.89775e-07
1.90716e-07
1.91785e-07
1.92975e-07
1.94277e-07
1.95686e-07
1.97194e-07
1.98796e-07
2.00487e-07
2.02261e-07
2.04115e-07
2.06044e-07
2.08045e-07
2.10114e-07
2.12247e-07
2.14443e-07
2.16697e-07
2.19006e-07
2.21367e-07
2.23777e-07
2.26233e-07
2.2873e-07
2.31266e-07
2.33835e-07
2.36434e-07
2.39056e-07
2.41697e-07
2.44348e-07
2.47003e-07
2.49652e-07
2.52285e-07
2.5489e-07
2.5745e-07
2.5995e-07
2.62369e-07
2.64684e-07
2.66866e-07
2.68886e-07
2.70711e-07
2.72304e-07
2.73626e-07
2.74638e-07
2.75301e-07
2.75554e-07
2.75369e-07
2.74734e-07
2.73648e-07
2.72127e-07
2.70202e-07
2.67923e-07
2.6535e-07
2.62558e-07
2.59619e-07
2.56602e-07
2.53565e-07
2.50555e-07
2.47604e-07
2.44739e-07
2.41972e-07
2.39321e-07
2.36786e-07
2.34386e-07
2.32117e-07
2.2999e-07
2.28006e-07
2.26171e-07
2.24486e-07
2.22956e-07
2.21574e-07
2.20338e-07
2.19237e-07
2.18268e-07
2.17401e-07
2.16594e-07
2.15824e-07
2.14992e-07
2.14086e-07
2.1295e-07
2.1152e-07
1.81439e-07
1.80203e-07
1.78284e-07
1.7626e-07
1.74133e-07
1.72096e-07
1.70271e-07
1.68645e-07
1.67272e-07
1.66151e-07
1.65275e-07
1.64631e-07
1.6421e-07
1.63999e-07
1.63981e-07
1.64149e-07
1.64481e-07
1.64975e-07
1.6561e-07
1.6638e-07
1.67271e-07
1.68277e-07
1.69389e-07
1.70602e-07
1.71908e-07
1.73302e-07
1.74778e-07
1.7633e-07
1.77955e-07
1.79646e-07
1.814e-07
1.83214e-07
1.85084e-07
1.87005e-07
1.88975e-07
1.9099e-07
1.93047e-07
1.95142e-07
1.97271e-07
1.99431e-07
2.01618e-07
2.03826e-07
2.06053e-07
2.08291e-07
2.10536e-07
2.12781e-07
2.15018e-07
2.1724e-07
2.19436e-07
2.21596e-07
2.23708e-07
2.25758e-07
2.27728e-07
2.296e-07
2.31353e-07
2.32962e-07
2.34401e-07
2.35641e-07
2.36652e-07
2.37402e-07
2.37861e-07
2.37999e-07
2.37792e-07
2.37223e-07
2.36258e-07
2.349e-07
2.33179e-07
2.31133e-07
2.28811e-07
2.26272e-07
2.23583e-07
2.2081e-07
2.18017e-07
2.15256e-07
2.12569e-07
2.09984e-07
2.07519e-07
2.05188e-07
2.02993e-07
2.00942e-07
1.99027e-07
1.9726e-07
1.95631e-07
1.94144e-07
1.92795e-07
1.91582e-07
1.90505e-07
1.89563e-07
1.88747e-07
1.88055e-07
1.87472e-07
1.86998e-07
1.86602e-07
1.86243e-07
1.859e-07
1.85475e-07
1.84958e-07
1.84195e-07
1.83117e-07
1.56706e-07
1.55943e-07
1.54534e-07
1.53009e-07
1.51392e-07
1.49845e-07
1.48481e-07
1.47288e-07
1.46312e-07
1.45554e-07
1.45003e-07
1.44647e-07
1.44479e-07
1.44486e-07
1.44655e-07
1.44978e-07
1.45436e-07
1.46029e-07
1.46738e-07
1.47558e-07
1.48478e-07
1.49491e-07
1.50592e-07
1.51774e-07
1.53032e-07
1.54361e-07
1.55754e-07
1.57209e-07
1.58719e-07
1.60282e-07
1.61892e-07
1.63546e-07
1.65241e-07
1.66972e-07
1.68736e-07
1.70529e-07
1.72347e-07
1.74187e-07
1.76043e-07
1.77911e-07
1.79788e-07
1.81666e-07
1.8354e-07
1.85405e-07
1.87253e-07
1.89077e-07
1.90868e-07
1.92616e-07
1.9431e-07
1.95939e-07
1.97488e-07
1.98943e-07
2.00285e-07
2.01498e-07
2.02558e-07
2.03444e-07
2.04133e-07
2.04599e-07
2.04818e-07
2.04769e-07
2.0443e-07
2.03786e-07
2.02829e-07
2.01559e-07
1.99986e-07
1.98107e-07
1.95963e-07
1.93611e-07
1.91107e-07
1.88511e-07
1.85881e-07
1.83273e-07
1.80734e-07
1.78301e-07
1.76e-07
1.73843e-07
1.7184e-07
1.69995e-07
1.68303e-07
1.66767e-07
1.65376e-07
1.64135e-07
1.63034e-07
1.62071e-07
1.61241e-07
1.6054e-07
1.59964e-07
1.59512e-07
1.59173e-07
1.58944e-07
1.58813e-07
1.58777e-07
1.5881e-07
1.58874e-07
1.58948e-07
1.58944e-07
1.58853e-07
1.58531e-07
1.57905e-07
1.36066e-07
1.35723e-07
1.34802e-07
1.3375e-07
1.3261e-07
1.31511e-07
1.30554e-07
1.29733e-07
1.29087e-07
1.28617e-07
1.28315e-07
1.28173e-07
1.28183e-07
1.28335e-07
1.28619e-07
1.29029e-07
1.2955e-07
1.30179e-07
1.30904e-07
1.31718e-07
1.32613e-07
1.33584e-07
1.34624e-07
1.3573e-07
1.36896e-07
1.38117e-07
1.39389e-07
1.40707e-07
1.42067e-07
1.43465e-07
1.44896e-07
1.46358e-07
1.47845e-07
1.49355e-07
1.50882e-07
1.52424e-07
1.53975e-07
1.55531e-07
1.57086e-07
1.58637e-07
1.60176e-07
1.61699e-07
1.63198e-07
1.64667e-07
1.66097e-07
1.67481e-07
1.68808e-07
1.70069e-07
1.71251e-07
1.72342e-07
1.73329e-07
1.74197e-07
1.74929e-07
1.75508e-07
1.75916e-07
1.76134e-07
1.76145e-07
1.75931e-07
1.75476e-07
1.74769e-07
1.73802e-07
1.72573e-07
1.71089e-07
1.69365e-07
1.67424e-07
1.653e-07
1.6301e-07
1.60621e-07
1.58186e-07
1.55755e-07
1.53375e-07
1.51086e-07
1.4892e-07
1.46898e-07
1.45034e-07
1.43331e-07
1.41791e-07
1.40412e-07
1.39188e-07
1.38117e-07
1.37186e-07
1.36401e-07
1.35747e-07
1.35223e-07
1.34823e-07
1.34541e-07
1.34374e-07
1.34319e-07
1.34366e-07
1.34511e-07
1.34745e-07
1.35064e-07
1.35446e-07
1.35857e-07
1.36279e-07
1.36635e-07
1.36913e-07
1.36986e-07
1.3678e-07
1.19206e-07
1.19179e-07
1.18649e-07
1.17976e-07
1.17215e-07
1.16467e-07
1.15824e-07
1.15281e-07
1.14875e-07
1.14608e-07
1.14475e-07
1.14469e-07
1.14586e-07
1.14817e-07
1.15155e-07
1.15594e-07
1.16122e-07
1.16739e-07
1.17432e-07
1.18197e-07
1.19027e-07
1.19917e-07
1.20862e-07
1.21858e-07
1.22901e-07
1.23986e-07
1.25108e-07
1.26264e-07
1.27448e-07
1.28658e-07
1.2989e-07
1.31138e-07
1.32399e-07
1.33669e-07
1.34943e-07
1.36217e-07
1.37486e-07
1.38745e-07
1.39989e-07
1.41212e-07
1.42408e-07
1.4357e-07
1.44692e-07
1.45765e-07
1.46783e-07
1.47735e-07
1.48613e-07
1.49405e-07
1.50103e-07
1.50692e-07
1.51161e-07
1.51498e-07
1.51688e-07
1.51718e-07
1.51574e-07
1.51244e-07
1.50718e-07
1.49985e-07
1.49042e-07
1.47885e-07
1.4652e-07
1.44956e-07
1.43211e-07
1.41307e-07
1.39277e-07
1.37158e-07
1.34977e-07
1.3278e-07
1.30612e-07
1.28513e-07
1.26513e-07
1.2464e-07
1.2291e-07
1.21334e-07
1.19918e-07
1.1866e-07
1.17556e-07
1.16604e-07
1.15794e-07
1.15124e-07
1.14583e-07
1.14172e-07
1.1388e-07
1.13705e-07
1.1364e-07
1.13681e-07
1.13824e-07
1.14065e-07
1.14398e-07
1.14817e-07
1.15315e-07
1.1589e-07
1.16522e-07
1.17183e-07
1.17856e-07
1.18476e-07
1.19028e-07
1.19401e-07
1.19516e-07
1.0547e-07
1.05661e-07
1.05414e-07
1.05017e-07
1.04531e-07
1.04038e-07
1.03615e-07
1.03265e-07
1.03019e-07
1.02882e-07
1.0285e-07
1.02919e-07
1.03086e-07
1.03344e-07
1.03688e-07
1.04113e-07
1.0461e-07
1.05178e-07
1.05807e-07
1.06494e-07
1.07232e-07
1.08016e-07
1.08842e-07
1.09708e-07
1.10609e-07
1.11539e-07
1.12496e-07
1.13475e-07
1.14472e-07
1.15483e-07
1.16504e-07
1.17531e-07
1.18559e-07
1.19584e-07
1.20602e-07
1.21607e-07
1.22596e-07
1.23561e-07
1.24499e-07
1.25404e-07
1.26268e-07
1.27086e-07
1.2785e-07
1.28553e-07
1.29188e-07
1.29746e-07
1.30219e-07
1.30596e-07
1.3087e-07
1.31029e-07
1.31065e-07
1.30967e-07
1.30727e-07
1.30334e-07
1.29783e-07
1.29066e-07
1.28181e-07
1.27126e-07
1.25905e-07
1.24525e-07
1.22997e-07
1.21339e-07
1.19572e-07
1.17723e-07
1.15822e-07
1.13903e-07
1.11997e-07
1.10131e-07
1.08339e-07
1.06645e-07
1.0507e-07
1.03628e-07
1.02328e-07
1.01174e-07
1.00166e-07
9.92999e-08
9.85705e-08
9.79735e-08
9.75016e-08
9.71511e-08
9.6913e-08
9.67872e-08
9.67653e-08
9.68448e-08
9.70202e-08
9.72877e-08
9.7644e-08
9.80865e-08
9.86088e-08
9.92079e-08
9.98766e-08
1.00613e-07
1.01403e-07
1.02221e-07
1.03053e-07
1.03843e-07
1.04574e-07
1.0515e-07
1.05495e-07
9.41977e-08
9.45248e-08
9.44711e-08
9.42629e-08
9.39656e-08
9.36457e-08
9.33697e-08
9.31437e-08
9.29962e-08
9.29329e-08
9.29515e-08
9.30496e-08
9.3225e-08
9.34739e-08
9.37909e-08
9.41735e-08
9.46132e-08
9.51095e-08
9.56542e-08
9.6244e-08
9.68731e-08
9.75377e-08
9.82343e-08
9.89595e-08
9.97089e-08
1.00479e-07
1.01265e-07
1.02064e-07
1.02872e-07
1.03684e-07
1.04496e-07
1.05305e-07
1.06105e-07
1.06894e-07
1.07665e-07
1.08414e-07
1.09138e-07
1.09829e-07
1.10483e-07
1.11095e-07
1.11658e-07
1.12166e-07
1.12614e-07
1.12993e-07
1.13299e-07
1.13523e-07
1.13659e-07
1.13699e-07
1.13636e-07
1.13463e-07
1.13175e-07
1.12764e-07
1.12226e-07
1.11557e-07
1.10756e-07
1.09822e-07
1.08758e-07
1.07568e-07
1.06262e-07
1.04851e-07
1.03352e-07
1.01781e-07
1.00163e-07
9.85198e-08
9.68783e-08
9.5264e-08
9.37024e-08
9.22121e-08
9.08118e-08
8.95172e-08
8.83393e-08
8.72856e-08
8.63591e-08
8.55604e-08
8.4887e-08
8.43348e-08
8.38986e-08
8.35741e-08
8.33556e-08
8.32394e-08
8.32188e-08
8.32934e-08
8.34567e-08
8.37067e-08
8.40395e-08
8.44518e-08
8.49413e-08
8.55057e-08
8.61403e-08
8.68425e-08
8.7607e-08
8.84324e-08
8.93064e-08
9.0209e-08
9.11257e-08
9.20104e-08
9.28437e-08
9.35423e-08
9.40351e-08
8.48398e-08
8.52437e-08
8.53131e-08
8.52276e-08
8.5053e-08
8.48445e-08
8.46596e-08
8.45072e-08
8.44127e-08
8.43826e-08
8.4416e-08
8.45118e-08
8.46686e-08
8.48838e-08
8.51533e-08
8.5475e-08
8.58419e-08
8.62536e-08
8.67031e-08
8.71875e-08
8.77015e-08
8.82419e-08
8.88053e-08
8.93886e-08
8.99878e-08
9.05994e-08
9.12194e-08
9.18442e-08
9.24697e-08
9.30922e-08
9.37077e-08
9.43123e-08
9.49017e-08
9.54719e-08
9.60184e-08
9.65369e-08
9.70229e-08
9.74714e-08
9.78776e-08
9.82365e-08
9.85431e-08
9.87919e-08
9.89779e-08
9.90957e-08
9.914e-08
9.91054e-08
9.8987e-08
9.87796e-08
9.84791e-08
9.80814e-08
9.75835e-08
9.69832e-08
9.62793e-08
9.54724e-08
9.45645e-08
9.35595e-08
9.2464e-08
9.12859e-08
9.00365e-08
8.87288e-08
8.73783e-08
8.60023e-08
8.46194e-08
8.3249e-08
8.19105e-08
8.06227e-08
7.94031e-08
7.82645e-08
7.72157e-08
7.62656e-08
7.54198e-08
7.46817e-08
7.40517e-08
7.35288e-08
7.31101e-08
7.27919e-08
7.25699e-08
7.24406e-08
7.23996e-08
7.2444e-08
7.25688e-08
7.27739e-08
7.30545e-08
7.34094e-08
7.38355e-08
7.43307e-08
7.48932e-08
7.55213e-08
7.62114e-08
7.69617e-08
7.77681e-08
7.86295e-08
7.95359e-08
8.04704e-08
8.14194e-08
8.23437e-08
8.32229e-08
8.39846e-08
8.45614e-08
7.69713e-08
7.74104e-08
7.75523e-08
7.75411e-08
7.74412e-08
7.72994e-08
7.71659e-08
7.70512e-08
7.69781e-08
7.69538e-08
7.69782e-08
7.70512e-08
7.71722e-08
7.73394e-08
7.75496e-08
7.78011e-08
7.80882e-08
7.84105e-08
7.8762e-08
7.914e-08
7.95399e-08
7.99587e-08
8.03934e-08
8.0841e-08
8.12978e-08
8.17606e-08
8.22257e-08
8.26897e-08
8.31487e-08
8.35993e-08
8.40377e-08
8.44604e-08
8.48634e-08
8.5243e-08
8.55951e-08
8.59161e-08
8.62017e-08
8.64479e-08
8.66505e-08
8.68053e-08
8.69084e-08
8.69555e-08
8.69427e-08
8.68661e-08
8.67223e-08
8.65075e-08
8.62189e-08
8.58537e-08
8.54101e-08
8.48867e-08
8.42831e-08
8.36e-08
8.28389e-08
8.20031e-08
8.10971e-08
8.01269e-08
7.91001e-08
7.8026e-08
7.69153e-08
7.57803e-08
7.46342e-08
7.3491e-08
7.23652e-08
7.12711e-08
7.02223e-08
6.92318e-08
6.83115e-08
6.74687e-08
6.67069e-08
6.6031e-08
6.54436e-08
6.49461e-08
6.45378e-08
6.42175e-08
6.39826e-08
6.38301e-08
6.37567e-08
6.376e-08
6.38365e-08
6.39844e-08
6.42001e-08
6.44837e-08
6.4832e-08
6.52441e-08
6.57181e-08
6.62526e-08
6.68461e-08
6.74977e-08
6.82046e-08
6.89654e-08
6.97772e-08
7.06389e-08
7.15425e-08
7.24734e-08
7.34188e-08
7.4345e-08
7.5231e-08
7.60134e-08
7.66283e-08
7.02746e-08
7.07209e-08
7.08994e-08
7.09283e-08
7.08692e-08
7.07627e-08
7.06529e-08
7.05515e-08
7.0479e-08
7.04427e-08
7.04434e-08
7.04818e-08
7.05577e-08
7.067e-08
7.08163e-08
7.09952e-08
7.12019e-08
7.14362e-08
7.16927e-08
7.19693e-08
7.22617e-08
7.25673e-08
7.28832e-08
7.32069e-08
7.35348e-08
7.38641e-08
7.41913e-08
7.45135e-08
7.48269e-08
7.51287e-08
7.54153e-08
7.56836e-08
7.59302e-08
7.61518e-08
7.6345e-08
7.65066e-08
7.66331e-08
7.67213e-08
7.6768e-08
7.67699e-08
7.6724e-08
7.66274e-08
7.64774e-08
7.62717e-08
7.60082e-08
7.56849e-08
7.53007e-08
7.48547e-08
7.43468e-08
7.37775e-08
7.31483e-08
7.24616e-08
7.17204e-08
7.09293e-08
7.00936e-08
6.92197e-08
6.83152e-08
6.73886e-08
6.64492e-08
6.55071e-08
6.45728e-08
6.36569e-08
6.27699e-08
6.19218e-08
6.1122e-08
6.03786e-08
5.97012e-08
5.90916e-08
5.85514e-08
5.80831e-08
5.76882e-08
5.73668e-08
5.71183e-08
5.69414e-08
5.68343e-08
5.67947e-08
5.68203e-08
5.69093e-08
5.70595e-08
5.72697e-08
5.75374e-08
5.78629e-08
5.82442e-08
5.86809e-08
5.91719e-08
5.97161e-08
6.03127e-08
6.09611e-08
6.16591e-08
6.24058e-08
6.31991e-08
6.40379e-08
6.49156e-08
6.58197e-08
6.67379e-08
6.76407e-08
6.85074e-08
6.92814e-08
6.99027e-08
6.45142e-08
6.49489e-08
6.51394e-08
6.51849e-08
6.51432e-08
6.50508e-08
6.49465e-08
6.48425e-08
6.47575e-08
6.46989e-08
6.46682e-08
6.46664e-08
6.46938e-08
6.475e-08
6.48328e-08
6.49416e-08
6.50722e-08
6.52243e-08
6.53936e-08
6.55778e-08
6.57735e-08
6.59781e-08
6.61893e-08
6.64044e-08
6.66206e-08
6.68351e-08
6.7045e-08
6.72475e-08
6.74395e-08
6.76184e-08
6.77811e-08
6.79251e-08
6.80473e-08
6.81452e-08
6.82159e-08
6.82568e-08
6.82653e-08
6.8239e-08
6.81753e-08
6.80722e-08
6.79275e-08
6.77394e-08
6.75065e-08
6.72274e-08
6.69013e-08
6.65276e-08
6.61063e-08
6.56377e-08
6.51231e-08
6.4564e-08
6.39628e-08
6.33225e-08
6.2647e-08
6.19408e-08
6.12091e-08
6.04579e-08
5.96939e-08
5.8924e-08
5.81559e-08
5.73972e-08
5.6656e-08
5.59399e-08
5.52563e-08
5.46121e-08
5.40135e-08
5.34656e-08
5.29763e-08
5.25437e-08
5.2169e-08
5.18536e-08
5.15981e-08
5.14025e-08
5.12662e-08
5.11883e-08
5.11674e-08
5.1202e-08
5.12907e-08
5.14322e-08
5.16251e-08
5.18688e-08
5.21616e-08
5.25041e-08
5.28951e-08
5.33346e-08
5.38219e-08
5.43566e-08
5.49381e-08
5.5566e-08
5.62387e-08
5.69556e-08
5.77151e-08
5.85163e-08
5.93536e-08
6.02159e-08
6.10917e-08
6.19549e-08
6.27849e-08
6.35314e-08
6.41375e-08
5.95148e-08
5.99258e-08
6.01118e-08
6.0158e-08
6.01185e-08
6.00264e-08
5.99161e-08
5.98002e-08
5.96957e-08
5.96098e-08
5.95448e-08
5.95019e-08
5.94818e-08
5.94844e-08
5.95083e-08
5.95528e-08
5.96148e-08
5.96937e-08
5.97861e-08
5.98899e-08
6.00021e-08
6.01205e-08
6.02429e-08
6.0367e-08
6.04903e-08
6.06105e-08
6.07249e-08
6.08311e-08
6.09266e-08
6.10089e-08
6.10758e-08
6.11249e-08
6.11539e-08
6.11607e-08
6.1143e-08
6.1099e-08
6.10267e-08
6.09243e-08
6.07902e-08
6.06229e-08
6.04213e-08
6.01843e-08
5.99113e-08
5.96019e-08
5.9256e-08
5.8874e-08
5.84564e-08
5.80045e-08
5.752e-08
5.70048e-08
5.64617e-08
5.58939e-08
5.5305e-08
5.46992e-08
5.40812e-08
5.34559e-08
5.28288e-08
5.22054e-08
5.15917e-08
5.09933e-08
5.04162e-08
4.98657e-08
4.93471e-08
4.88649e-08
4.84234e-08
4.80259e-08
4.76781e-08
4.73771e-08
4.71238e-08
4.69189e-08
4.67628e-08
4.66554e-08
4.65963e-08
4.65849e-08
4.66204e-08
4.67019e-08
4.68284e-08
4.69992e-08
4.72135e-08
4.74709e-08
4.77708e-08
4.81136e-08
4.84989e-08
4.89268e-08
4.93972e-08
4.991e-08
5.04648e-08
5.10613e-08
5.16985e-08
5.23759e-08
5.30922e-08
5.38467e-08
5.46347e-08
5.54461e-08
5.62702e-08
5.70836e-08
5.78661e-08
5.85726e-08
5.91496e-08
5.51447e-08
5.55246e-08
5.56955e-08
5.57325e-08
5.56856e-08
5.55855e-08
5.54629e-08
5.53303e-08
5.52034e-08
5.50893e-08
5.49906e-08
5.49089e-08
5.48452e-08
5.47996e-08
5.47713e-08
5.47598e-08
5.47625e-08
5.4779e-08
5.48065e-08
5.48431e-08
5.48863e-08
5.4934e-08
5.49844e-08
5.50354e-08
5.5085e-08
5.5131e-08
5.51712e-08
5.52037e-08
5.52262e-08
5.52369e-08
5.52337e-08
5.52148e-08
5.51785e-08
5.5123e-08
5.50467e-08
5.49482e-08
5.48261e-08
5.46793e-08
5.45066e-08
5.43073e-08
5.40807e-08
5.38265e-08
5.35445e-08
5.32349e-08
5.28981e-08
5.25349e-08
5.21464e-08
5.17339e-08
5.12993e-08
5.08447e-08
5.03728e-08
4.98864e-08
4.93887e-08
4.88835e-08
4.83744e-08
4.78656e-08
4.73612e-08
4.68657e-08
4.63834e-08
4.59186e-08
4.54754e-08
4.50577e-08
4.46691e-08
4.43128e-08
4.39916e-08
4.37078e-08
4.34651e-08
4.32608e-08
4.30955e-08
4.29696e-08
4.28833e-08
4.28368e-08
4.28297e-08
4.28618e-08
4.29327e-08
4.30417e-08
4.31884e-08
4.33725e-08
4.35936e-08
4.38517e-08
4.41465e-08
4.44787e-08
4.48482e-08
4.52554e-08
4.57006e-08
4.61836e-08
4.67046e-08
4.72632e-08
4.78587e-08
4.84909e-08
4.91587e-08
4.98614e-08
5.05949e-08
5.13503e-08
5.21173e-08
5.28749e-08
5.36035e-08
5.42624e-08
5.48015e-08
5.13041e-08
5.16485e-08
5.1798e-08
5.18199e-08
5.17605e-08
5.16481e-08
5.15103e-08
5.13597e-08
5.12105e-08
5.10698e-08
5.09405e-08
5.08244e-08
5.07228e-08
5.0636e-08
5.05635e-08
5.05052e-08
5.0459e-08
5.04247e-08
5.03997e-08
5.03825e-08
5.0371e-08
5.03633e-08
5.03578e-08
5.03529e-08
5.03466e-08
5.03372e-08
5.03229e-08
5.0302e-08
5.02727e-08
5.02333e-08
5.01824e-08
5.01185e-08
5.00401e-08
4.99461e-08
4.98351e-08
4.97063e-08
4.95587e-08
4.93914e-08
4.92039e-08
4.89958e-08
4.87668e-08
4.8517e-08
4.82465e-08
4.79557e-08
4.76454e-08
4.73165e-08
4.69702e-08
4.66078e-08
4.62312e-08
4.58424e-08
4.54436e-08
4.50374e-08
4.46264e-08
4.42137e-08
4.38022e-08
4.33952e-08
4.29959e-08
4.26076e-08
4.22336e-08
4.18769e-08
4.15407e-08
4.12275e-08
4.094e-08
4.06802e-08
4.04502e-08
4.02515e-08
4.00863e-08
3.99525e-08
3.98504e-08
3.97804e-08
3.97427e-08
3.97373e-08
3.97643e-08
3.98236e-08
3.99149e-08
4.0038e-08
4.01929e-08
4.03795e-08
4.05976e-08
4.08476e-08
4.11293e-08
4.14438e-08
4.17912e-08
4.2172e-08
4.25868e-08
4.30355e-08
4.35185e-08
4.40356e-08
4.45861e-08
4.517e-08
4.57865e-08
4.64349e-08
4.71115e-08
4.78083e-08
4.85156e-08
4.92144e-08
4.98858e-08
5.04931e-08
5.09892e-08
4.79157e-08
4.82225e-08
4.83475e-08
4.83516e-08
4.82773e-08
4.81512e-08
4.7998e-08
4.78301e-08
4.76607e-08
4.74967e-08
4.73413e-08
4.71964e-08
4.70635e-08
4.69431e-08
4.68352e-08
4.67396e-08
4.66549e-08
4.65808e-08
4.65154e-08
4.64572e-08
4.64043e-08
4.63554e-08
4.63088e-08
4.62633e-08
4.62171e-08
4.61688e-08
4.61169e-08
4.60599e-08
4.59964e-08
4.59251e-08
4.58447e-08
4.57541e-08
4.56522e-08
4.55381e-08
4.54108e-08
4.52697e-08
4.5114e-08
4.49435e-08
4.47576e-08
4.45563e-08
4.43395e-08
4.41074e-08
4.38605e-08
4.35992e-08
4.33243e-08
4.30367e-08
4.27377e-08
4.24284e-08
4.21106e-08
4.17858e-08
4.14562e-08
4.11236e-08
4.07904e-08
4.04588e-08
4.01314e-08
3.98105e-08
3.94987e-08
3.91984e-08
3.89119e-08
3.86417e-08
3.83898e-08
3.81581e-08
3.79484e-08
3.77623e-08
3.76009e-08
3.74657e-08
3.73575e-08
3.72748e-08
3.72178e-08
3.71869e-08
3.71823e-08
3.7204e-08
3.72522e-08
3.73271e-08