/*--------------------------------*- C++ -*----------------------------------*\
| =========                 |                                                 |
| \\      /  F ield         | OpenFOAM: The Open Source CFD Toolbox           |
|  \\    /   O peration     | Version:  2.3.1                                 |
|   \\  /    A nd           | Web:      www.OpenFOAM.org                      |
|    \\/     M anipulation  |                                                 |
\*---------------------------------------------------------------------------*/
FoamFile
{
    version     2.0;
    format      ascii;
    class       volScalarField;
    location    "10000";
    object      k;
}
// * * * * * * * * * * * * * * * * * * * * * * * * * * * * * * * * * * * * * //

dimensions      [0 2 -2 0 0 0 0];

internalField   nonuniform List<scalar> 
14751
(
5.61441e-09
5.85423e-09
6.12388e-09
6.39951e-09
6.69057e-09
6.99329e-09
7.30302e-09
7.62538e-09
7.95564e-09
8.29904e-09
8.65059e-09
9.01356e-09
9.38477e-09
9.7621e-09
1.01477e-08
1.05389e-08
1.09372e-08
1.13382e-08
1.17452e-08
1.21556e-08
1.25722e-08
1.29934e-08
1.34193e-08
1.38487e-08
1.42843e-08
1.47247e-08
1.51686e-08
1.56164e-08
1.60661e-08
1.65184e-08
1.69736e-08
1.7431e-08
1.78904e-08
1.83509e-08
1.88118e-08
1.92732e-08
1.97319e-08
2.01888e-08
2.06418e-08
2.10909e-08
2.15319e-08
2.19659e-08
2.23938e-08
2.28108e-08
2.32179e-08
2.36117e-08
2.39905e-08
2.4353e-08
2.46958e-08
2.50165e-08
2.53127e-08
2.55816e-08
2.58206e-08
2.60257e-08
2.61934e-08
2.63204e-08
2.64049e-08
2.6443e-08
2.64161e-08
2.63097e-08
2.61136e-08
2.58075e-08
2.5373e-08
2.47905e-08
2.40379e-08
2.31055e-08
2.19899e-08
2.07005e-08
1.92582e-08
1.77038e-08
1.60894e-08
1.44723e-08
1.29092e-08
1.14468e-08
1.01182e-08
8.94152e-09
7.92205e-09
7.0569e-09
6.3386e-09
5.75701e-09
5.29552e-09
4.9344e-09
4.65822e-09
4.44877e-09
4.29516e-09
4.18743e-09
4.11905e-09
4.08503e-09
4.08158e-09
4.10573e-09
4.15575e-09
4.22982e-09
4.3274e-09
4.44805e-09
4.5902e-09
4.75539e-09
4.93939e-09
5.14175e-09
5.362e-09
1.05457e-07
1.09834e-07
1.14735e-07
1.19717e-07
1.24957e-07
1.30393e-07
1.35937e-07
1.41645e-07
1.47486e-07
1.53547e-07
1.59747e-07
1.66135e-07
1.72667e-07
1.79307e-07
1.8609e-07
1.92976e-07
1.99983e-07
2.07041e-07
2.14201e-07
2.21429e-07
2.28763e-07
2.36181e-07
2.4368e-07
2.5125e-07
2.58929e-07
2.66689e-07
2.74513e-07
2.82403e-07
2.9033e-07
2.98307e-07
3.06335e-07
3.14406e-07
3.22514e-07
3.30645e-07
3.38788e-07
3.46936e-07
3.55043e-07
3.63122e-07
3.71139e-07
3.79083e-07
3.86892e-07
3.94589e-07
4.02183e-07
4.09602e-07
4.1685e-07
4.23875e-07
4.30643e-07
4.37134e-07
4.43286e-07
4.49062e-07
4.54415e-07
4.59296e-07
4.6366e-07
4.67437e-07
4.70563e-07
4.7298e-07
4.7465e-07
4.75489e-07
4.75174e-07
4.73458e-07
4.70144e-07
4.64874e-07
4.57313e-07
4.47102e-07
4.33862e-07
4.17412e-07
3.97685e-07
3.74832e-07
3.49222e-07
3.21563e-07
2.92769e-07
2.63857e-07
2.35842e-07
2.0957e-07
1.85657e-07
1.64451e-07
1.46071e-07
1.30457e-07
1.17472e-07
1.06951e-07
9.85957e-08
9.20517e-08
8.7046e-08
8.32534e-08
8.04805e-08
7.85487e-08
7.73409e-08
7.67666e-08
7.67573e-08
7.72584e-08
7.82383e-08
7.96637e-08
8.15233e-08
8.3807e-08
8.64825e-08
8.95765e-08
9.30066e-08
9.67598e-08
1.00819e-07
4.23185e-07
4.40005e-07
4.59492e-07
4.79865e-07
5.01792e-07
5.2486e-07
5.48616e-07
5.7331e-07
5.98724e-07
6.24843e-07
6.51696e-07
6.79467e-07
7.08044e-07
7.37247e-07
7.67177e-07
7.97712e-07
8.28835e-07
8.60304e-07
8.92274e-07
9.24615e-07
9.57423e-07
9.90604e-07
1.02413e-06
1.05794e-06
1.09215e-06
1.12664e-06
1.16135e-06
1.19626e-06
1.23128e-06
1.26641e-06
1.30166e-06
1.33697e-06
1.37233e-06
1.40768e-06
1.44294e-06
1.4781e-06
1.513e-06
1.54767e-06
1.58197e-06
1.61585e-06
1.64912e-06
1.68183e-06
1.714e-06
1.74538e-06
1.77592e-06
1.80546e-06
1.83385e-06
1.86098e-06
1.88667e-06
1.9108e-06
1.93316e-06
1.95357e-06
1.97185e-06
1.98771e-06
2.0009e-06
2.01115e-06
2.01826e-06
2.02181e-06
2.0206e-06
2.01365e-06
2.00008e-06
1.9785e-06
1.94752e-06
1.9057e-06
1.85152e-06
1.78411e-06
1.70308e-06
1.60885e-06
1.5028e-06
1.38762e-06
1.26694e-06
1.14495e-06
1.02593e-06
9.13606e-07
8.10804e-07
7.19257e-07
6.39656e-07
5.71855e-07
5.1524e-07
4.68724e-07
4.31473e-07
4.01947e-07
3.79004e-07
3.61245e-07
3.47843e-07
3.38016e-07
3.31245e-07
3.27127e-07
3.25351e-07
3.25662e-07
3.27903e-07
3.31906e-07
3.3762e-07
3.45006e-07
3.53946e-07
3.64592e-07
3.76677e-07
3.90285e-07
4.05458e-07
1.11663e-06
1.15727e-06
1.20622e-06
1.25884e-06
1.31669e-06
1.37837e-06
1.44239e-06
1.50943e-06
1.57878e-06
1.65031e-06
1.72396e-06
1.7996e-06
1.87695e-06
1.95613e-06
2.03728e-06
2.12024e-06
2.20462e-06
2.28987e-06
2.3762e-06
2.46331e-06
2.55117e-06
2.63953e-06
2.72821e-06
2.81706e-06
2.90611e-06
2.99512e-06
3.08392e-06
3.1724e-06
3.26034e-06
3.34773e-06
3.43452e-06
3.5206e-06
3.60592e-06
3.69034e-06
3.77374e-06
3.85603e-06
3.93702e-06
4.01682e-06
4.0951e-06
4.17174e-06
4.24656e-06
4.31951e-06
4.39047e-06
4.45932e-06
4.52602e-06
4.59032e-06
4.65198e-06
4.71083e-06
4.76662e-06
4.81909e-06
4.86795e-06
4.91285e-06
4.95346e-06
4.98928e-06
5.0198e-06
5.04442e-06
5.06249e-06
5.07314e-06
5.07433e-06
5.06413e-06
5.04057e-06
5.00088e-06
4.94203e-06
4.86074e-06
4.75343e-06
4.61717e-06
4.44969e-06
4.25003e-06
4.01904e-06
3.76039e-06
3.48041e-06
3.18773e-06
2.89256e-06
2.60517e-06
2.33471e-06
2.08808e-06
1.8694e-06
1.68007e-06
1.51954e-06
1.38548e-06
1.27529e-06
1.18552e-06
1.11429e-06
1.05766e-06
1.01342e-06
9.79324e-07
9.53851e-07
9.35822e-07
9.24308e-07
9.18514e-07
9.17929e-07
9.22007e-07
9.30582e-07
9.4355e-07
9.60615e-07
9.82317e-07
1.00807e-06
1.03847e-06
1.07385e-06
2.31394e-06
2.38461e-06
2.47309e-06
2.57013e-06
2.67813e-06
2.79382e-06
2.91347e-06
3.03826e-06
3.16641e-06
3.29738e-06
3.43075e-06
3.56616e-06
3.70287e-06
3.84063e-06
3.97901e-06
4.11726e-06
4.25554e-06
4.39322e-06
4.5303e-06
4.6665e-06
4.8014e-06
4.93465e-06
5.06605e-06
5.1954e-06
5.3227e-06
5.44777e-06
5.57051e-06
5.69085e-06
5.80871e-06
5.92414e-06
6.03718e-06
6.14784e-06
6.2562e-06
6.36227e-06
6.46596e-06
6.56726e-06
6.66611e-06
6.76246e-06
6.85643e-06
6.94805e-06
7.0372e-06
7.12389e-06
7.20809e-06
7.28976e-06
7.3689e-06
7.44538e-06
7.519e-06
7.58965e-06
7.6571e-06
7.72117e-06
7.78157e-06
7.83797e-06
7.89007e-06
7.93735e-06
7.97926e-06
8.0151e-06
8.04394e-06
8.06475e-06
8.07592e-06
8.07548e-06
8.06131e-06
8.03061e-06
7.98017e-06
7.9064e-06
7.8052e-06
7.67257e-06
7.5046e-06
7.29795e-06
7.05028e-06
6.7612e-06
6.43272e-06
6.06973e-06
5.68039e-06
5.27566e-06
4.86847e-06
4.47216e-06
4.09847e-06
3.75609e-06
3.45034e-06
3.18268e-06
2.95269e-06
2.75707e-06
2.59273e-06
2.45648e-06
2.34589e-06
2.25654e-06
2.18549e-06
2.13042e-06
2.08938e-06
2.06058e-06
2.04285e-06
2.03487e-06
2.03622e-06
2.04668e-06
2.06558e-06
2.09426e-06
2.13161e-06
2.17947e-06
2.23871e-06
3.87105e-06
3.95502e-06
4.06458e-06
4.18615e-06
4.32196e-06
4.46676e-06
4.61457e-06
4.76661e-06
4.9203e-06
5.0747e-06
5.22922e-06
5.38342e-06
5.53648e-06
5.6881e-06
5.83799e-06
5.98559e-06
6.13111e-06
6.27392e-06
6.41413e-06
6.55137e-06
6.68594e-06
6.81776e-06
6.94678e-06
7.07296e-06
7.19639e-06
7.31706e-06
7.43501e-06
7.55027e-06
7.66292e-06
7.77303e-06
7.88071e-06
7.98602e-06
8.08901e-06
8.1897e-06
8.28822e-06
8.38463e-06
8.4789e-06
8.57106e-06
8.66122e-06
8.7494e-06
8.83553e-06
8.91963e-06
9.00168e-06
9.08162e-06
9.15947e-06
9.23512e-06
9.3084e-06
9.37921e-06
9.44736e-06
9.51266e-06
9.57485e-06
9.63362e-06
9.68867e-06
9.73953e-06
9.78566e-06
9.82636e-06
9.86074e-06
9.8876e-06
9.90593e-06
9.91405e-06
9.91014e-06
9.89191e-06
9.85675e-06
9.80174e-06
9.72362e-06
9.61912e-06
9.48506e-06
9.3186e-06
9.11752e-06
8.88079e-06
8.60884e-06
8.30382e-06
7.96999e-06
7.61348e-06
7.24217e-06
6.86502e-06
6.4911e-06
6.12868e-06
5.78484e-06
5.46447e-06
5.17134e-06
4.9064e-06
4.67052e-06
4.46298e-06
4.28214e-06
4.12723e-06
3.99675e-06
3.88871e-06
3.80121e-06
3.7319e-06
3.67938e-06
3.64166e-06
3.6182e-06
3.60877e-06
3.61213e-06
3.63071e-06
3.66268e-06
3.71176e-06
3.77913e-06
5.31221e-06
5.38411e-06
5.48285e-06
5.59449e-06
5.72019e-06
5.85458e-06
5.99114e-06
6.13092e-06
6.27143e-06
6.41175e-06
6.55143e-06
6.69016e-06
6.82734e-06
6.9628e-06
7.09642e-06
7.22783e-06
7.35727e-06
7.48425e-06
7.60896e-06
7.73123e-06
7.85129e-06
7.96912e-06
8.0847e-06
8.19804e-06
8.30921e-06
8.41825e-06
8.52519e-06
8.63006e-06
8.73293e-06
8.83386e-06
8.9329e-06
9.03011e-06
9.12553e-06
9.21919e-06
9.31115e-06
9.40146e-06
9.49007e-06
9.57703e-06
9.66238e-06
9.74611e-06
9.82817e-06
9.90854e-06
9.98718e-06
1.0064e-05
1.0139e-05
1.02121e-05
1.02831e-05
1.03519e-05
1.04183e-05
1.04821e-05
1.05431e-05
1.06009e-05
1.06552e-05
1.07056e-05
1.07515e-05
1.07922e-05
1.08269e-05
1.08545e-05
1.0874e-05
1.08841e-05
1.08832e-05
1.08693e-05
1.08405e-05
1.07943e-05
1.07283e-05
1.06399e-05
1.0527e-05
1.03877e-05
1.02206e-05
1.00253e-05
9.8027e-06
9.55468e-06
9.28456e-06
8.9968e-06
8.69674e-06
8.39019e-06
8.08283e-06
7.7798e-06
7.48561e-06
7.20364e-06
6.93693e-06
6.68701e-06
6.45562e-06
6.24353e-06
6.05119e-06
5.87906e-06
5.72691e-06
5.59387e-06
5.47956e-06
5.38321e-06
5.30412e-06
5.24041e-06
5.19174e-06
5.15827e-06
5.13821e-06
5.13499e-06
5.14625e-06
5.17796e-06
5.23124e-06
6.34215e-06
6.39618e-06
6.47408e-06
6.56455e-06
6.66767e-06
6.77916e-06
6.89321e-06
7.01053e-06
7.12906e-06
7.24794e-06
7.36683e-06
7.48546e-06
7.60339e-06
7.72046e-06
7.83658e-06
7.95146e-06
8.06522e-06
8.17747e-06
8.28834e-06
8.3977e-06
8.50565e-06
8.61217e-06
8.71721e-06
8.82075e-06
8.92279e-06
9.02334e-06
9.12239e-06
9.21995e-06
9.31601e-06
9.4106e-06
9.50373e-06
9.59542e-06
9.68566e-06
9.77448e-06
9.86188e-06
9.94787e-06
1.00324e-05
1.01155e-05
1.01971e-05
1.02772e-05
1.03558e-05
1.04328e-05
1.05082e-05
1.05818e-05
1.06535e-05
1.07234e-05
1.07911e-05
1.08566e-05
1.09197e-05
1.098e-05
1.10375e-05
1.10916e-05
1.11422e-05
1.11886e-05
1.12304e-05
1.12669e-05
1.12972e-05
1.13204e-05
1.13353e-05
1.13409e-05
1.13356e-05
1.1318e-05
1.12862e-05
1.12384e-05
1.11727e-05
1.10872e-05
1.09805e-05
1.08516e-05
1.07001e-05
1.05262e-05
1.03315e-05
1.01181e-05
9.88909e-06
9.64827e-06
9.3997e-06
9.14749e-06
8.89541e-06
8.64674e-06
8.40426e-06
8.17008e-06
7.94612e-06
7.73348e-06
7.5335e-06
7.34699e-06
7.17467e-06
7.01715e-06
6.87467e-06
6.74712e-06
6.63456e-06
6.5367e-06
6.45319e-06
6.38303e-06
6.32611e-06
6.28261e-06
6.25162e-06
6.23518e-06
6.23151e-06
6.24542e-06
6.2809e-06
6.98657e-06
7.02852e-06
7.09026e-06
7.16372e-06
7.24814e-06
7.34049e-06
7.43607e-06
7.5352e-06
7.63627e-06
7.73848e-06
7.84153e-06
7.94514e-06
8.04895e-06
8.15277e-06
8.2565e-06
8.35983e-06
8.4628e-06
8.56506e-06
8.66663e-06
8.7674e-06
8.86736e-06
8.96645e-06
9.0646e-06
9.16173e-06
9.25782e-06
9.3528e-06
9.44665e-06
9.53931e-06
9.63077e-06
9.72099e-06
9.80996e-06
9.89766e-06
9.98405e-06
1.00691e-05
1.01529e-05
1.02352e-05
1.03161e-05
1.03956e-05
1.04736e-05
1.05501e-05
1.06249e-05
1.0698e-05
1.07693e-05
1.08387e-05
1.09061e-05
1.09714e-05
1.10343e-05
1.10948e-05
1.11524e-05
1.12071e-05
1.12585e-05
1.13063e-05
1.135e-05
1.13891e-05
1.14231e-05
1.14513e-05
1.14728e-05
1.14867e-05
1.1492e-05
1.14875e-05
1.14719e-05
1.14439e-05
1.1402e-05
1.13447e-05
1.12707e-05
1.11787e-05
1.10681e-05
1.09385e-05
1.07903e-05
1.06247e-05
1.04434e-05
1.0249e-05
1.00445e-05
9.83313e-06
9.61821e-06
9.40275e-06
9.1894e-06
8.98029e-06
8.7772e-06
8.58145e-06
8.3942e-06
8.21624e-06
8.04839e-06
7.89129e-06
7.74548e-06
7.61142e-06
7.48937e-06
7.37935e-06
7.28148e-06
7.19557e-06
7.12141e-06
7.05838e-06
7.00637e-06
6.9655e-06
6.93524e-06
6.91684e-06
6.90943e-06
6.9157e-06
6.94013e-06
7.36948e-06
7.406e-06
7.45864e-06
7.52195e-06
7.59459e-06
7.67456e-06
7.75817e-06
7.84545e-06
7.93513e-06
8.02648e-06
8.11919e-06
8.21301e-06
8.3076e-06
8.40276e-06
8.49834e-06
8.59405e-06
8.68983e-06
8.78538e-06
8.88065e-06
8.97551e-06
9.0699e-06
9.16372e-06
9.25688e-06
9.34928e-06
9.44085e-06
9.5315e-06
9.62117e-06
9.70979e-06
9.7973e-06
9.88364e-06
9.96877e-06
1.00526e-05
1.01352e-05
1.02164e-05
1.02962e-05
1.03745e-05
1.04513e-05
1.05265e-05
1.06e-05
1.06718e-05
1.07418e-05
1.08098e-05
1.08757e-05
1.09395e-05
1.10009e-05
1.10598e-05
1.1116e-05
1.11692e-05
1.12193e-05
1.12659e-05
1.13086e-05
1.13471e-05
1.1381e-05
1.14096e-05
1.14324e-05
1.14487e-05
1.14575e-05
1.14581e-05
1.14495e-05
1.14305e-05
1.14002e-05
1.13572e-05
1.13005e-05
1.12289e-05
1.11417e-05
1.10383e-05
1.09186e-05
1.07831e-05
1.06329e-05
1.04696e-05
1.02954e-05
1.0113e-05
9.92529e-06
9.73499e-06
9.54474e-06
9.35677e-06
9.17293e-06
8.99464e-06
8.82299e-06
8.65882e-06
8.5028e-06
8.35543e-06
8.21716e-06
8.08838e-06
7.96938e-06
7.86043e-06
7.76162e-06
7.67294e-06
7.59436e-06
7.52571e-06
7.46673e-06
7.41698e-06
7.37626e-06
7.3446e-06
7.32163e-06
7.30813e-06
7.30373e-06
7.31047e-06
7.33076e-06
7.59909e-06
7.6344e-06
7.68308e-06
7.74131e-06
7.80748e-06
7.88026e-06
7.95671e-06
8.0367e-06
8.11922e-06
8.20357e-06
8.28951e-06
8.37675e-06
8.46502e-06
8.55409e-06
8.64381e-06
8.7339e-06
8.82425e-06
8.91459e-06
9.00483e-06
9.09484e-06
9.18451e-06
9.27375e-06
9.36243e-06
9.45044e-06
9.5377e-06
9.62409e-06
9.70953e-06
9.79392e-06
9.87718e-06
9.95924e-06
1.004e-05
1.01195e-05
1.01975e-05
1.0274e-05
1.0349e-05
1.04223e-05
1.04939e-05
1.05636e-05
1.06315e-05
1.06973e-05
1.0761e-05
1.08224e-05
1.08814e-05
1.09378e-05
1.09914e-05
1.10421e-05
1.10896e-05
1.11336e-05
1.11738e-05
1.12099e-05
1.12416e-05
1.12684e-05
1.12897e-05
1.13051e-05
1.1314e-05
1.13154e-05
1.13088e-05
1.12933e-05
1.12679e-05
1.12318e-05
1.11841e-05
1.11239e-05
1.10504e-05
1.09631e-05
1.08615e-05
1.07459e-05
1.06168e-05
1.04754e-05
1.03233e-05
1.01624e-05
9.9953e-06
9.82445e-06
9.65238e-06
9.48142e-06
9.31352e-06
9.15028e-06
8.99289e-06
8.84224e-06
8.69895e-06
8.56348e-06
8.43612e-06
8.31711e-06
8.2066e-06
8.10475e-06
8.0116e-06
7.92721e-06
7.85152e-06
7.78441e-06
7.72573e-06
7.67524e-06
7.63267e-06
7.59762e-06
7.56988e-06
7.5494e-06
7.53592e-06
7.52996e-06
7.53139e-06
7.54173e-06
7.56292e-06
7.74688e-06
7.78304e-06
7.83044e-06
7.88631e-06
7.94894e-06
8.01741e-06
8.08932e-06
8.16447e-06
8.242e-06
8.3213e-06
8.40215e-06
8.48429e-06
8.56748e-06
8.65151e-06
8.73622e-06
8.82136e-06
8.9068e-06
8.9923e-06
9.07774e-06
9.16298e-06
9.24791e-06
9.33243e-06
9.41641e-06
9.49972e-06
9.58224e-06
9.66388e-06
9.74451e-06
9.82402e-06
9.90233e-06
9.97932e-06
1.00549e-05
1.0129e-05
1.02015e-05
1.02724e-05
1.03414e-05
1.04086e-05
1.04738e-05
1.05369e-05
1.05977e-05
1.06562e-05
1.07122e-05
1.07656e-05
1.08161e-05
1.08635e-05
1.09078e-05
1.09485e-05
1.09855e-05
1.10185e-05
1.10471e-05
1.10709e-05
1.10897e-05
1.11028e-05
1.11099e-05
1.11102e-05
1.11033e-05
1.10885e-05
1.1065e-05
1.10321e-05
1.09891e-05
1.09354e-05
1.08703e-05
1.07933e-05
1.07042e-05
1.0603e-05
1.04899e-05
1.03653e-05
1.02307e-05
1.00877e-05
9.93801e-06
9.78399e-06
9.62791e-06
9.47201e-06
9.31833e-06
9.16861e-06
9.0242e-06
8.8861e-06
8.755e-06
8.63133e-06
8.51534e-06
8.40717e-06
8.30683e-06
8.21432e-06
8.12957e-06
8.05251e-06
7.98303e-06
7.92102e-06
7.86631e-06
7.8187e-06
7.77796e-06
7.74384e-06
7.71607e-06
7.6943e-06
7.67833e-06
7.66814e-06
7.66353e-06
7.66495e-06
7.6724e-06
7.6871e-06
7.71085e-06
7.85479e-06
7.89204e-06
7.93899e-06
7.99346e-06
8.05371e-06
8.11904e-06
8.18745e-06
8.25869e-06
8.33204e-06
8.40696e-06
8.48325e-06
8.56071e-06
8.63911e-06
8.71828e-06
8.79806e-06
8.87824e-06
8.95866e-06
9.03911e-06
9.11948e-06
9.19962e-06
9.27941e-06
9.35875e-06
9.43749e-06
9.51551e-06
9.59268e-06
9.66887e-06
9.74396e-06
9.81782e-06
9.89035e-06
9.96143e-06
1.00309e-05
1.00988e-05
1.01648e-05
1.0229e-05
1.02911e-05
1.0351e-05
1.04087e-05
1.0464e-05
1.05167e-05
1.05668e-05
1.06139e-05
1.06579e-05
1.06987e-05
1.0736e-05
1.07696e-05
1.07992e-05
1.08246e-05
1.08453e-05
1.08611e-05
1.08717e-05
1.08765e-05
1.08752e-05
1.08672e-05
1.08521e-05
1.08292e-05
1.07981e-05
1.07582e-05
1.0709e-05
1.065e-05
1.05807e-05
1.05011e-05
1.0411e-05
1.03107e-05
1.02007e-05
1.00817e-05
9.95488e-06
9.82162e-06
9.68384e-06
9.54348e-06
9.40259e-06
9.26309e-06
9.12675e-06
8.99503e-06
8.86906e-06
8.74964e-06
8.63727e-06
8.53221e-06
8.43456e-06
8.34428e-06
8.26128e-06
8.18537e-06
8.11638e-06
8.05409e-06
7.99833e-06
7.94888e-06
7.90554e-06
7.86811e-06
7.83635e-06
7.81004e-06
7.78893e-06
7.77281e-06
7.76139e-06
7.75454e-06
7.75227e-06
7.75449e-06
7.76164e-06
7.77382e-06
7.79213e-06
7.81825e-06
7.94506e-06
7.98273e-06
8.02904e-06
8.08206e-06
8.14005e-06
8.20243e-06
8.26749e-06
8.33496e-06
8.40421e-06
8.47477e-06
8.54647e-06
8.61913e-06
8.6926e-06
8.7667e-06
8.84131e-06
8.91621e-06
8.99127e-06
9.06629e-06
9.14115e-06
9.21572e-06
9.28987e-06
9.36347e-06
9.43641e-06
9.50853e-06
9.57971e-06
9.6498e-06
9.71867e-06
9.78617e-06
9.85219e-06
9.91659e-06
9.97925e-06
1.004e-05
1.00988e-05
1.01554e-05
1.02098e-05
1.02617e-05
1.03111e-05
1.03578e-05
1.04016e-05
1.04423e-05
1.04798e-05
1.05138e-05
1.05442e-05
1.05706e-05
1.0593e-05
1.06109e-05
1.06242e-05
1.06324e-05
1.06353e-05
1.06325e-05
1.06237e-05
1.06084e-05
1.05862e-05
1.05567e-05
1.05196e-05
1.04743e-05
1.04207e-05
1.03584e-05
1.02872e-05
1.02072e-05
1.01185e-05
1.00215e-05
9.9168e-06
9.80533e-06
9.68826e-06
9.56699e-06
9.44286e-06
9.31769e-06
9.1932e-06
9.07098e-06
8.95248e-06
8.83887e-06
8.73103e-06
8.62958e-06
8.53486e-06
8.44701e-06
8.36599e-06
8.29169e-06
8.22391e-06
8.16239e-06
8.10689e-06
8.05713e-06
8.01285e-06
7.97384e-06
7.93985e-06
7.91069e-06
7.88615e-06
7.86601e-06
7.85009e-06
7.83819e-06
7.83016e-06
7.82579e-06
7.82502e-06
7.82793e-06
7.83452e-06
7.84528e-06
7.86036e-06
7.88087e-06
7.90837e-06
8.02866e-06
8.06581e-06
8.11085e-06
8.16194e-06
8.21734e-06
8.27654e-06
8.33801e-06
8.40148e-06
8.46639e-06
8.53234e-06
8.59919e-06
8.66679e-06
8.73502e-06
8.80374e-06
8.87282e-06
8.94209e-06
9.0114e-06
9.08059e-06
9.14953e-06
9.21809e-06
9.28613e-06
9.35355e-06
9.42019e-06
9.48593e-06
9.55061e-06
9.61408e-06
9.6762e-06
9.73682e-06
9.7958e-06
9.85299e-06
9.90826e-06
9.96146e-06
1.00125e-05
1.00611e-05
1.01072e-05
1.01507e-05
1.01913e-05
1.0229e-05
1.02635e-05
1.02946e-05
1.03222e-05
1.03461e-05
1.0366e-05
1.03818e-05
1.03931e-05
1.03997e-05
1.04014e-05
1.03979e-05
1.03889e-05
1.03741e-05
1.03531e-05
1.03258e-05
1.02918e-05
1.02509e-05
1.02028e-05
1.01474e-05
1.00845e-05
1.00143e-05
9.93688e-06
9.85251e-06
9.7617e-06
9.66515e-06
9.56373e-06
9.45853e-06
9.3508e-06
9.24192e-06
9.13316e-06
9.02585e-06
8.92128e-06
8.82054e-06
8.72453e-06
8.63392e-06
8.54913e-06
8.4704e-06
8.39778e-06
8.33118e-06
8.27044e-06
8.21533e-06
8.16559e-06
8.12093e-06
8.08109e-06
8.04578e-06
8.01477e-06
7.98784e-06
7.96478e-06
7.94542e-06
7.9296e-06
7.91713e-06
7.9079e-06
7.90175e-06
7.8986e-06
7.8983e-06
7.90087e-06
7.90647e-06
7.91517e-06
7.92751e-06
7.94373e-06
7.96492e-06
7.99262e-06
8.11082e-06
8.1465e-06
8.18957e-06
8.23814e-06
8.29048e-06
8.3461e-06
8.40362e-06
8.46277e-06
8.52305e-06
8.58409e-06
8.64579e-06
8.70804e-06
8.77074e-06
8.83377e-06
8.89703e-06
8.96036e-06
9.02363e-06
9.08668e-06
9.14938e-06
9.21162e-06
9.27325e-06
9.33416e-06
9.39421e-06
9.45325e-06
9.51113e-06
9.56769e-06
9.62277e-06
9.67623e-06
9.72791e-06
9.77766e-06
9.82533e-06
9.87078e-06
9.91384e-06
9.95436e-06
9.9922e-06
1.00272e-05
1.00592e-05
1.0088e-05
1.01134e-05
1.01353e-05
1.01535e-05
1.01678e-05
1.0178e-05
1.01839e-05
1.01853e-05
1.0182e-05
1.01737e-05
1.01603e-05
1.01415e-05
1.01171e-05
1.0087e-05
1.00509e-05
1.00088e-05
9.96061e-06
9.90624e-06
9.84578e-06
9.77938e-06
9.70732e-06
9.62997e-06
9.54788e-06
9.46171e-06
9.37228e-06
9.28053e-06
9.1875e-06
9.09428e-06
9.00198e-06
8.91165e-06
8.82412e-06
8.74018e-06
8.66049e-06
8.5855e-06
8.51553e-06
8.45072e-06
8.39107e-06
8.33649e-06
8.28682e-06
8.24184e-06
8.20132e-06
8.16499e-06
8.1326e-06
8.10391e-06
8.07867e-06
8.05669e-06
8.03778e-06
8.0218e-06
8.0086e-06
7.99806e-06
7.99006e-06
7.98452e-06
7.98134e-06
7.98049e-06
7.98189e-06
7.98561e-06
7.99188e-06
8.00085e-06
8.01309e-06
8.02893e-06
8.04947e-06
8.0762e-06
8.19401e-06
8.22742e-06
8.26786e-06
8.31336e-06
8.36219e-06
8.41386e-06
8.4671e-06
8.52164e-06
8.57701e-06
8.63289e-06
8.68921e-06
8.74589e-06
8.80285e-06
8.86e-06
8.91725e-06
8.97447e-06
9.03152e-06
9.08827e-06
9.14459e-06
9.20037e-06
9.25546e-06
9.30976e-06
9.36312e-06
9.41539e-06
9.46641e-06
9.51603e-06
9.56408e-06
9.61041e-06
9.65486e-06
9.69727e-06
9.7375e-06
9.77539e-06
9.8108e-06
9.84355e-06
9.87352e-06
9.90053e-06
9.92445e-06
9.9451e-06
9.96233e-06
9.97599e-06
9.98591e-06
9.99193e-06
9.99389e-06
9.99163e-06
9.98499e-06
9.97382e-06
9.95798e-06
9.93733e-06
9.91177e-06
9.8812e-06
9.84555e-06
9.80481e-06
9.75901e-06
9.70821e-06
9.65258e-06
9.59235e-06
9.52784e-06
9.45945e-06
9.38772e-06
9.31323e-06
9.23669e-06
9.15888e-06
9.08061e-06
9.00273e-06
8.92607e-06
8.85142e-06
8.77948e-06
8.7107e-06
8.6455e-06
8.5842e-06
8.52698e-06
8.47395e-06
8.42508e-06
8.3803e-06
8.33947e-06
8.30242e-06
8.26895e-06
8.23885e-06
8.2119e-06
8.18789e-06
8.16663e-06
8.14791e-06
8.1316e-06
8.11755e-06
8.10565e-06
8.09582e-06
8.08796e-06
8.082e-06
8.07789e-06
8.07559e-06
8.07511e-06
8.07641e-06
8.07963e-06
8.08504e-06
8.09285e-06
8.1037e-06
8.11796e-06
8.13674e-06
8.16154e-06
8.27952e-06
8.31001e-06
8.34727e-06
8.38926e-06
8.43421e-06
8.48164e-06
8.53035e-06
8.58006e-06
8.63035e-06
8.68092e-06
8.73173e-06
8.78273e-06
8.83386e-06
8.88507e-06
8.93627e-06
8.98734e-06
9.03817e-06
9.08864e-06
9.13862e-06
9.188e-06
9.23666e-06
9.28446e-06
9.33128e-06
9.37696e-06
9.42135e-06
9.46428e-06
9.50559e-06
9.54514e-06
9.58276e-06
9.6183e-06
9.65162e-06
9.68256e-06
9.71099e-06
9.73675e-06
9.7597e-06
9.77972e-06
9.79666e-06
9.81038e-06
9.82077e-06
9.82768e-06
9.83099e-06
9.83058e-06
9.82635e-06
9.81817e-06
9.80598e-06
9.78967e-06
9.76919e-06
9.7445e-06
9.71557e-06
9.68242e-06
9.64511e-06
9.60372e-06
9.55841e-06
9.50936e-06
9.45684e-06
9.40117e-06
9.34274e-06
9.28202e-06
9.21951e-06
9.15579e-06
9.09146e-06
9.02714e-06
8.96348e-06
8.90106e-06
8.84046e-06
8.78216e-06
8.72658e-06
8.67389e-06
8.62428e-06
8.57786e-06
8.53468e-06
8.49471e-06
8.4579e-06
8.42413e-06
8.39328e-06
8.36519e-06
8.33973e-06
8.31669e-06
8.29594e-06
8.2773e-06
8.26063e-06
8.24576e-06
8.23261e-06
8.22107e-06
8.21106e-06
8.20254e-06
8.19545e-06
8.18975e-06
8.18544e-06
8.18249e-06
8.18097e-06
8.18085e-06
8.18234e-06
8.18575e-06
8.19133e-06
8.19979e-06
8.21153e-06
8.22771e-06
8.2498e-06
8.36813e-06
8.39517e-06
8.42885e-06
8.467e-06
8.50783e-06
8.55084e-06
8.59487e-06
8.63965e-06
8.68478e-06
8.73001e-06
8.77531e-06
8.82066e-06
8.86602e-06
8.91136e-06
8.95662e-06
9.00169e-06
9.04648e-06
9.09087e-06
9.13475e-06
9.17801e-06
9.22053e-06
9.26219e-06
9.30285e-06
9.34237e-06
9.3806e-06
9.41738e-06
9.45255e-06
9.48596e-06
9.51746e-06
9.54692e-06
9.57418e-06
9.59912e-06
9.62159e-06
9.64149e-06
9.65867e-06
9.67304e-06
9.68447e-06
9.69287e-06
9.69813e-06
9.70016e-06
9.69888e-06
9.69422e-06
9.68613e-06
9.67454e-06
9.65943e-06
9.64079e-06
9.61863e-06
9.59298e-06
9.5639e-06
9.53149e-06
9.49586e-06
9.4572e-06
9.41571e-06
9.37164e-06
9.32529e-06
9.27701e-06
9.22717e-06
9.17619e-06
9.12451e-06
9.07261e-06
9.02093e-06
8.96995e-06
8.92008e-06
8.87173e-06
8.82523e-06
8.78086e-06
8.73881e-06
8.6991e-06
8.66177e-06
8.62684e-06
8.59427e-06
8.56401e-06
8.53598e-06
8.51008e-06
8.48621e-06
8.46426e-06
8.4441e-06
8.42562e-06
8.40868e-06
8.39318e-06
8.37901e-06
8.36604e-06
8.35423e-06
8.34349e-06
8.33378e-06
8.3251e-06
8.3174e-06
8.31068e-06
8.30496e-06
8.30026e-06
8.29665e-06
8.29416e-06
8.29301e-06
8.29356e-06
8.29612e-06
8.30142e-06
8.30994e-06
8.32285e-06
8.34166e-06
8.46045e-06
8.48366e-06
8.51345e-06
8.54756e-06
8.58415e-06
8.62265e-06
8.66197e-06
8.70184e-06
8.74187e-06
8.78185e-06
8.82177e-06
8.86162e-06
8.90141e-06
8.94112e-06
8.9807e-06
9.02008e-06
9.05916e-06
9.09785e-06
9.13605e-06
9.17365e-06
9.21054e-06
9.2466e-06
9.28171e-06
9.31573e-06
9.34851e-06
9.37989e-06
9.40974e-06
9.4379e-06
9.46425e-06
9.48865e-06
9.51097e-06
9.53109e-06
9.5489e-06
9.5643e-06
9.57718e-06
9.58747e-06
9.59506e-06
9.5999e-06
9.60191e-06
9.60106e-06
9.59729e-06
9.59057e-06
9.58091e-06
9.56829e-06
9.55274e-06
9.5343e-06
9.51304e-06
9.48902e-06
9.46237e-06
9.43323e-06
9.40176e-06
9.36815e-06
9.33263e-06
9.29546e-06
9.25692e-06
9.21732e-06
9.17697e-06
9.13623e-06
9.09543e-06
9.05491e-06
9.015e-06
8.976e-06
8.93817e-06
8.90177e-06
8.86695e-06
8.83386e-06
8.80254e-06
8.77292e-06
8.74497e-06
8.71865e-06
8.69392e-06
8.67069e-06
8.6489e-06
8.62847e-06
8.60931e-06
8.59136e-06
8.57453e-06
8.55873e-06
8.54388e-06
8.52989e-06
8.51672e-06
8.50424e-06
8.49244e-06
8.48127e-06
8.47073e-06
8.4608e-06
8.4515e-06
8.44282e-06
8.43483e-06
8.42756e-06
8.42111e-06
8.41553e-06
8.41106e-06
8.40812e-06
8.40704e-06
8.40862e-06
8.41337e-06
8.42251e-06
8.43758e-06
8.55702e-06
8.57613e-06
8.60188e-06
8.63185e-06
8.66416e-06
8.69819e-06
8.73289e-06
8.76798e-06
8.80307e-06
8.83801e-06
8.87279e-06
8.90744e-06
8.94199e-06
8.97643e-06
9.01074e-06
9.04486e-06
9.07873e-06
9.11226e-06
9.14534e-06
9.17791e-06
9.20984e-06
9.24102e-06
9.27135e-06
9.30068e-06
9.32888e-06
9.3558e-06
9.38131e-06
9.40528e-06
9.42759e-06
9.44811e-06
9.46673e-06
9.48336e-06
9.4979e-06
9.51026e-06
9.52038e-06
9.52818e-06
9.53361e-06
9.53664e-06
9.53722e-06
9.53535e-06
9.531e-06
9.5242e-06
9.51496e-06
9.50332e-06
9.48934e-06
9.47308e-06
9.45465e-06
9.43414e-06
9.4117e-06
9.38746e-06
9.3616e-06
9.33431e-06
9.3058e-06
9.2763e-06
9.24603e-06
9.21526e-06
9.18422e-06
9.15318e-06
9.12238e-06
9.09204e-06
9.06237e-06
9.03357e-06
9.00579e-06
8.97913e-06
8.95369e-06
8.9295e-06
8.90648e-06
8.88454e-06
8.86363e-06
8.84368e-06
8.82463e-06
8.8064e-06
8.78894e-06
8.77218e-06
8.75607e-06
8.74056e-06
8.7256e-06
8.71114e-06
8.69712e-06
8.68347e-06
8.67019e-06
8.65718e-06
8.64444e-06
8.63195e-06
8.61972e-06
8.60777e-06
8.59613e-06
8.58482e-06
8.57391e-06
8.56347e-06
8.55361e-06
8.5444e-06
8.53612e-06
8.5292e-06
8.52403e-06
8.52145e-06
8.52202e-06
8.52702e-06
8.53803e-06
8.65841e-06
8.67324e-06
8.69487e-06
8.72072e-06
8.74883e-06
8.77853e-06
8.80879e-06
8.83931e-06
8.86975e-06
8.89995e-06
8.92996e-06
8.9598e-06
8.98954e-06
9.01919e-06
9.04876e-06
9.07819e-06
9.10746e-06
9.13646e-06
9.16513e-06
9.19339e-06
9.22114e-06
9.24827e-06
9.27468e-06
9.30025e-06
9.32483e-06
9.34831e-06
9.37056e-06
9.39145e-06
9.41088e-06
9.42874e-06
9.44494e-06
9.45939e-06
9.47202e-06
9.48276e-06
9.49155e-06
9.49837e-06
9.50317e-06
9.50593e-06
9.50665e-06
9.50534e-06
9.502e-06
9.49667e-06
9.4894e-06
9.48024e-06
9.46925e-06
9.45654e-06
9.44219e-06
9.42632e-06
9.40905e-06
9.39054e-06
9.37093e-06
9.35038e-06
9.32907e-06
9.30719e-06
9.28491e-06
9.26241e-06
9.2399e-06
9.21752e-06
9.19545e-06
9.17384e-06
9.15279e-06
9.13242e-06
9.11279e-06
9.09395e-06
9.0759e-06
9.05864e-06
9.04197e-06
9.02584e-06
9.01017e-06
8.99487e-06
8.97989e-06
8.96514e-06
8.95059e-06
8.93619e-06
8.9219e-06
8.90769e-06
8.89355e-06
8.87944e-06
8.86532e-06
8.85117e-06
8.83697e-06
8.82268e-06
8.8083e-06
8.79384e-06
8.77931e-06
8.76476e-06
8.75023e-06
8.73577e-06
8.72148e-06
8.70741e-06
8.69371e-06
8.68048e-06
8.668e-06
8.65674e-06
8.64714e-06
8.64007e-06
8.63617e-06
8.63674e-06
8.64346e-06
8.76518e-06
8.77565e-06
8.79318e-06
8.81501e-06
8.83908e-06
8.86467e-06
8.89075e-06
8.91703e-06
8.94317e-06
8.96904e-06
8.99471e-06
9.02023e-06
9.04568e-06
9.0711e-06
9.09653e-06
9.12192e-06
9.14725e-06
9.17245e-06
9.19747e-06
9.22222e-06
9.24662e-06
9.27058e-06
9.29399e-06
9.31674e-06
9.3387e-06
9.35976e-06
9.3798e-06
9.39871e-06
9.41639e-06
9.43275e-06
9.44771e-06
9.46119e-06
9.47314e-06
9.48351e-06
9.49225e-06
9.49934e-06
9.50477e-06
9.50853e-06
9.51063e-06
9.51108e-06
9.50992e-06
9.50718e-06
9.50293e-06
9.49721e-06
9.49011e-06
9.48171e-06
9.4721e-06
9.46138e-06
9.44968e-06
9.4371e-06
9.42377e-06
9.40983e-06
9.3954e-06
9.38063e-06
9.36565e-06
9.35058e-06
9.33556e-06
9.32068e-06
9.30605e-06
9.29174e-06
9.27782e-06
9.26432e-06
9.25126e-06
9.23862e-06
9.22638e-06
9.21448e-06
9.20267e-06
9.19091e-06
9.17911e-06
9.16719e-06
9.15507e-06
9.14269e-06
9.13001e-06
9.11699e-06
9.10362e-06
9.08989e-06
9.07579e-06
9.0613e-06
9.04642e-06
9.03112e-06
9.01543e-06
8.9993e-06
8.98277e-06
8.96583e-06
8.94855e-06
8.93096e-06
8.91314e-06
8.89514e-06
8.87709e-06
8.85907e-06
8.84121e-06
8.82365e-06
8.80668e-06
8.7908e-06
8.77651e-06
8.76471e-06
8.75611e-06
8.75207e-06
8.75435e-06
8.87788e-06
8.88399e-06
8.89753e-06
8.9155e-06
8.93577e-06
8.95754e-06
8.97978e-06
9.0022e-06
9.02446e-06
9.04647e-06
9.0683e-06
9.09004e-06
9.11179e-06
9.1336e-06
9.15552e-06
9.17755e-06
9.19967e-06
9.22183e-06
9.24397e-06
9.26602e-06
9.28792e-06
9.30956e-06
9.33087e-06
9.35172e-06
9.372e-06
9.3916e-06
9.41042e-06
9.42834e-06
9.44529e-06
9.46117e-06
9.47592e-06
9.48947e-06
9.50178e-06
9.51279e-06
9.52249e-06
9.53086e-06
9.53788e-06
9.54356e-06
9.54792e-06
9.55098e-06
9.55277e-06
9.55333e-06
9.55271e-06
9.55098e-06
9.54819e-06
9.54443e-06
9.53977e-06
9.5343e-06
9.52811e-06
9.5213e-06
9.51395e-06
9.50617e-06
9.49806e-06
9.4897e-06
9.4812e-06
9.47263e-06
9.46406e-06
9.45557e-06
9.44719e-06
9.43896e-06
9.43089e-06
9.42298e-06
9.4152e-06
9.40751e-06
9.39983e-06
9.39209e-06
9.384e-06
9.37554e-06
9.36659e-06
9.35709e-06
9.34694e-06
9.33609e-06
9.32451e-06
9.31217e-06
9.29907e-06
9.28519e-06
9.27055e-06
9.25515e-06
9.239e-06
9.2221e-06
9.20447e-06
9.1861e-06
9.16701e-06
9.14724e-06
9.12685e-06
9.10589e-06
9.08446e-06
9.06263e-06
9.04054e-06
9.0183e-06
8.99604e-06
8.97391e-06
8.95223e-06
8.93154e-06
8.91236e-06
8.89566e-06
8.88221e-06
8.87344e-06
8.8712e-06
8.99709e-06
8.99889e-06
9.00859e-06
9.02293e-06
9.03969e-06
9.05799e-06
9.07678e-06
9.09577e-06
9.11462e-06
9.13328e-06
9.15181e-06
9.17035e-06
9.18899e-06
9.20782e-06
9.22691e-06
9.24627e-06
9.26589e-06
9.28573e-06
9.30575e-06
9.32589e-06
9.34607e-06
9.36622e-06
9.38624e-06
9.40603e-06
9.42548e-06
9.44448e-06
9.46293e-06
9.48074e-06
9.49781e-06
9.51407e-06
9.52945e-06
9.5439e-06
9.55736e-06
9.56981e-06
9.58122e-06
9.59157e-06
9.60086e-06
9.6091e-06
9.61629e-06
9.62246e-06
9.62764e-06
9.63187e-06
9.63519e-06
9.63764e-06
9.63929e-06
9.6402e-06
9.64042e-06
9.64002e-06
9.63908e-06
9.63766e-06
9.63582e-06
9.63365e-06
9.63119e-06
9.62852e-06
9.62569e-06
9.62274e-06
9.61971e-06
9.61662e-06
9.6135e-06
9.61033e-06
9.60709e-06
9.60374e-06
9.60024e-06
9.5965e-06
9.59245e-06
9.58794e-06
9.58272e-06
9.57674e-06
9.5699e-06
9.5621e-06
9.55326e-06
9.54334e-06
9.5323e-06
9.52011e-06
9.50677e-06
9.49229e-06
9.47669e-06