/*--------------------------------*- C++ -*----------------------------------*\
| =========                 |                                                 |
| \\      /  F ield         | OpenFOAM: The Open Source CFD Toolbox           |
|  \\    /   O peration     | Version:  2.3.1                                 |
|   \\  /    A nd           | Web:      www.OpenFOAM.org                      |
|    \\/     M anipulation  |                                                 |
\*---------------------------------------------------------------------------*/
FoamFile
{
    version     2.0;
    format      ascii;
    class       volScalarField;
    location    "10000";
    object      nut;
}
// * * * * * * * * * * * * * * * * * * * * * * * * * * * * * * * * * * * * * //

dimensions      [0 2 -1 0 0 0 0];

internalField   nonuniform List<scalar> 
14751
(
3.41989e-11
3.58382e-11
3.77273e-11
3.97076e-11
4.18384e-11
4.40887e-11
4.64253e-11
4.88938e-11
5.14532e-11
5.41517e-11
5.69441e-11
5.98575e-11
6.28641e-11
6.59455e-11
6.91197e-11
7.23617e-11
7.56867e-11
7.90549e-11
8.24935e-11
8.59788e-11
8.95359e-11
9.31485e-11
9.68138e-11
1.00521e-10
1.04292e-10
1.08113e-10
1.11967e-10
1.15859e-10
1.19766e-10
1.23695e-10
1.27645e-10
1.3161e-10
1.35587e-10
1.39565e-10
1.43538e-10
1.47504e-10
1.51431e-10
1.55328e-10
1.59176e-10
1.62971e-10
1.66673e-10
1.70293e-10
1.73843e-10
1.77275e-10
1.806e-10
1.83785e-10
1.86814e-10
1.89676e-10
1.92338e-10
1.94782e-10
1.96984e-10
1.98925e-10
2.00585e-10
2.01928e-10
2.02931e-10
2.03572e-10
2.03848e-10
2.0374e-10
2.03088e-10
2.01778e-10
1.99744e-10
1.96818e-10
1.92863e-10
1.87724e-10
1.81228e-10
1.73319e-10
1.63994e-10
1.53357e-10
1.41607e-10
1.29107e-10
1.16297e-10
1.03638e-10
9.15621e-11
8.03982e-11
7.03513e-11
6.15055e-11
5.38595e-11
4.73754e-11
4.19987e-11
3.76641e-11
3.42407e-11
3.15732e-11
2.9535e-11
2.79803e-11
2.68221e-11
2.59837e-11
2.54146e-11
2.50767e-11
2.49422e-11
2.49897e-11
2.52074e-11
2.55839e-11
2.61173e-11
2.68061e-11
2.76437e-11
2.86443e-11
2.97867e-11
3.10755e-11
3.25163e-11
2.37233e-09
2.48774e-09
2.61966e-09
2.75687e-09
2.9037e-09
3.05847e-09
3.21889e-09
3.38646e-09
3.56043e-09
3.74422e-09
3.93473e-09
4.13375e-09
4.33978e-09
4.55157e-09
4.77035e-09
4.99472e-09
5.22545e-09
5.46013e-09
5.70052e-09
5.94531e-09
6.19607e-09
6.45178e-09
6.71231e-09
6.97715e-09
7.24777e-09
7.52295e-09
7.80188e-09
8.08461e-09
8.36977e-09
8.65787e-09
8.94885e-09
9.24226e-09
9.53782e-09
9.83488e-09
1.01329e-08
1.04315e-08
1.07285e-08
1.10246e-08
1.13182e-08
1.16088e-08
1.18933e-08
1.2173e-08
1.24483e-08
1.27159e-08
1.2976e-08
1.32261e-08
1.34648e-08
1.36912e-08
1.39026e-08
1.40974e-08
1.42736e-08
1.44295e-08
1.45633e-08
1.46723e-08
1.47544e-08
1.4808e-08
1.48326e-08
1.48264e-08
1.47764e-08
1.46741e-08
1.45136e-08
1.42824e-08
1.39695e-08
1.35635e-08
1.30527e-08
1.24346e-08
1.17115e-08
1.08943e-08
1.00017e-08
9.06355e-09
8.1143e-09
7.18824e-09
6.31587e-09
5.51882e-09
4.80913e-09
4.19014e-09
3.65946e-09
3.2119e-09
2.84226e-09
2.54593e-09
2.31313e-09
2.13267e-09
1.99558e-09
1.8917e-09
1.81503e-09
1.76028e-09
1.72402e-09
1.70366e-09
1.69732e-09
1.70356e-09
1.72164e-09
1.75082e-09
1.79099e-09
1.84205e-09
1.90351e-09
1.97632e-09
2.05887e-09
2.15119e-09
2.25333e-09
1.76358e-08
1.85593e-08
1.96648e-08
2.08613e-08
2.21877e-08
2.3623e-08
2.51447e-08
2.67702e-08
2.84896e-08
3.0307e-08
3.22267e-08
3.42685e-08
3.64284e-08
3.86937e-08
4.10767e-08
4.35711e-08
4.61796e-08
4.88842e-08
5.17009e-08
5.46205e-08
5.76548e-08
6.07962e-08
6.40425e-08
6.73891e-08
7.08469e-08
7.44046e-08
7.80549e-08
8.17948e-08
8.56103e-08
8.9503e-08
9.347e-08
9.7504e-08
1.016e-07
1.05747e-07
1.09936e-07
1.14159e-07
1.18392e-07
1.22636e-07
1.26868e-07
1.31076e-07
1.35228e-07
1.39327e-07
1.43375e-07
1.47327e-07
1.51171e-07
1.54877e-07
1.58418e-07
1.61771e-07
1.64907e-07
1.67799e-07
1.70418e-07
1.72731e-07
1.74711e-07
1.76317e-07
1.77515e-07
1.78274e-07
1.7858e-07
1.78391e-07
1.77534e-07
1.75891e-07
1.73368e-07
1.69802e-07
1.65053e-07
1.58987e-07
1.51489e-07
1.42567e-07
1.32319e-07
1.20966e-07
1.08848e-07
9.64297e-08
8.4215e-08
7.26645e-08
6.21427e-08
5.28623e-08
4.48911e-08
3.81815e-08
3.26201e-08
2.8072e-08
2.44103e-08
2.15044e-08
1.92555e-08
1.75257e-08
1.62126e-08
1.52101e-08
1.4456e-08
1.38972e-08
1.34993e-08
1.32371e-08
1.30919e-08
1.30497e-08
1.31026e-08
1.32429e-08
1.34696e-08
1.37827e-08
1.41794e-08
1.46708e-08
1.52484e-08
1.59217e-08
1.66998e-08
8.16179e-08
8.6186e-08
9.19558e-08
9.84745e-08
1.05988e-07
1.14387e-07
1.23555e-07
1.33641e-07
1.44614e-07
1.56524e-07
1.69428e-07
1.83377e-07
1.98383e-07
2.14525e-07
2.31904e-07
2.50557e-07
2.70437e-07
2.91464e-07
3.13718e-07
3.37155e-07
3.61789e-07
3.87557e-07
4.14412e-07
4.42287e-07
4.71183e-07
5.0099e-07
5.31619e-07
5.62981e-07
5.94949e-07
6.27462e-07
6.6044e-07
6.93783e-07
7.27405e-07
7.61193e-07
7.9502e-07
8.28785e-07
8.62333e-07
8.95661e-07
9.28543e-07
9.60858e-07
9.92452e-07
1.02325e-06
1.05315e-06
1.08203e-06
1.10981e-06
1.13632e-06
1.16141e-06
1.18496e-06
1.20681e-06
1.22681e-06
1.24481e-06
1.26062e-06
1.2741e-06
1.28502e-06
1.29317e-06
1.29834e-06
1.30032e-06
1.29883e-06
1.29294e-06
1.28189e-06
1.26497e-06
1.2411e-06
1.20919e-06
1.16816e-06
1.11693e-06
1.05494e-06
9.82216e-07
8.99595e-07
8.0895e-07
7.13414e-07
6.16968e-07
5.23874e-07
4.38015e-07
3.62167e-07
2.9772e-07
2.44729e-07
2.02265e-07
1.68862e-07
1.42947e-07
1.22978e-07
1.07694e-07
9.59789e-08
8.71481e-08
8.03781e-08
7.52127e-08
7.12686e-08
6.83017e-08
6.6136e-08
6.46435e-08
6.37256e-08
6.3322e-08
6.33779e-08
6.38822e-08
6.48332e-08
6.62189e-08
6.81123e-08
7.04863e-08
7.34379e-08
7.70559e-08
3.13042e-07
3.30875e-07
3.54453e-07
3.81845e-07
4.14116e-07
4.50696e-07
4.90904e-07
5.35374e-07
5.83843e-07
6.36392e-07
6.93112e-07
7.54057e-07
8.19098e-07
8.88256e-07
9.61421e-07
1.03828e-06
1.11883e-06
1.20271e-06
1.28983e-06
1.37994e-06
1.47259e-06
1.56736e-06
1.66386e-06
1.76171e-06
1.86065e-06
1.96025e-06
2.06014e-06
2.15996e-06
2.25937e-06
2.35811e-06
2.45596e-06
2.55265e-06
2.64801e-06
2.74185e-06
2.83382e-06
2.92372e-06
3.01127e-06
3.09629e-06
3.17869e-06
3.25831e-06
3.33492e-06
3.40841e-06
3.47867e-06
3.54552e-06
3.60892e-06
3.6686e-06
3.72435e-06
3.77598e-06
3.82327e-06
3.86601e-06
3.90393e-06
3.93675e-06
3.96425e-06
3.986e-06
4.00162e-06
4.01065e-06
4.01245e-06
4.00643e-06
3.99123e-06
3.96534e-06
3.92726e-06
3.8749e-06
3.80599e-06
3.71808e-06
3.60851e-06
3.47511e-06
3.31622e-06
3.13114e-06
2.92054e-06
2.68721e-06
2.43608e-06
2.17414e-06
1.91015e-06
1.6536e-06
1.41361e-06
1.19749e-06
1.0097e-06
8.51551e-07
7.21789e-07
6.17208e-07
5.34138e-07
4.68409e-07
4.16664e-07
3.76051e-07
3.4453e-07
3.19858e-07
3.00606e-07
2.85745e-07
2.74501e-07
2.66251e-07
2.60602e-07
2.57189e-07
2.55896e-07
2.56675e-07
2.59426e-07
2.64507e-07
2.71796e-07
2.81885e-07
2.95239e-07
9.35201e-07
9.79012e-07
1.03907e-06
1.10957e-06
1.19281e-06
1.28657e-06
1.38834e-06
1.4993e-06
1.61828e-06
1.74499e-06
1.87924e-06
2.0208e-06
2.16902e-06
2.3236e-06
2.48406e-06
2.64962e-06
2.82006e-06
2.99432e-06
3.17203e-06
3.35223e-06
3.53468e-06
3.71861e-06
3.90332e-06
4.08814e-06
4.27254e-06
4.45585e-06
4.63748e-06
4.81689e-06
4.99359e-06
5.16719e-06
5.33735e-06
5.50368e-06
5.66581e-06
5.82339e-06
5.97625e-06
6.12414e-06
6.26667e-06
6.40374e-06
6.53521e-06
6.66091e-06
6.78052e-06
6.89396e-06
7.00106e-06
7.10164e-06
7.19566e-06
7.28278e-06
7.36272e-06
7.43527e-06
7.5001e-06
7.55695e-06
7.60546e-06
7.64523e-06
7.67594e-06
7.69698e-06
7.70773e-06
7.70744e-06
7.69501e-06
7.66908e-06
7.62869e-06
7.57169e-06
7.49597e-06
7.39883e-06
7.27739e-06
7.12863e-06
6.94941e-06
6.7372e-06
6.49013e-06
6.20752e-06
5.89024e-06
5.54138e-06
5.16618e-06
4.77192e-06
4.36767e-06
3.9634e-06
3.56924e-06
3.19444e-06
2.8464e-06
2.53012e-06
2.24836e-06
2.00128e-06
1.78796e-06
1.60536e-06
1.45078e-06
1.32082e-06
1.21206e-06
1.12191e-06
1.04788e-06
9.87618e-07
9.39163e-07
9.00603e-07
8.70753e-07
8.48349e-07
8.32939e-07
8.24294e-07
8.21892e-07
8.26881e-07
8.38721e-07
8.59627e-07
8.90802e-07
2.02936e-06
2.10356e-06
2.20872e-06
2.33389e-06
2.48247e-06
2.6498e-06
2.83088e-06
3.0273e-06
3.23664e-06
3.45804e-06
3.69086e-06
3.93441e-06
4.18738e-06
4.44897e-06
4.71818e-06
4.99355e-06
5.27447e-06
5.55898e-06
5.84643e-06
6.13536e-06
6.42512e-06
6.71445e-06
7.00221e-06
7.28733e-06
7.569e-06
7.84625e-06
8.11828e-06
8.38434e-06
8.64377e-06
8.89608e-06
9.14081e-06
9.37751e-06
9.6058e-06
9.82533e-06
1.00359e-05
1.02372e-05
1.04289e-05
1.06109e-05
1.07831e-05
1.09453e-05
1.10973e-05
1.1239e-05
1.13702e-05
1.14907e-05
1.16005e-05
1.16993e-05
1.17868e-05
1.18627e-05
1.19266e-05
1.19782e-05
1.20171e-05
1.20427e-05
1.20547e-05
1.20522e-05
1.20343e-05
1.19999e-05
1.19476e-05
1.18755e-05
1.17823e-05
1.16662e-05
1.15247e-05
1.13548e-05
1.11534e-05
1.09176e-05
1.06444e-05
1.03317e-05
9.97841e-06
9.5847e-06
9.15264e-06
8.6865e-06
8.19276e-06
7.67981e-06
7.1576e-06
6.63665e-06
6.12731e-06
5.63876e-06
5.17816e-06
4.75033e-06
4.35819e-06
4.00237e-06
3.68284e-06
3.39751e-06
3.14493e-06
2.92262e-06
2.72825e-06
2.55971e-06
2.41468e-06
2.29061e-06
2.18577e-06
2.09835e-06
2.02693e-06
1.96933e-06
1.92496e-06
1.89371e-06
1.87411e-06
1.86915e-06
1.87741e-06
1.90513e-06
1.9543e-06
3.53595e-06
3.65119e-06
3.81666e-06
4.01542e-06
4.25187e-06
4.51832e-06
4.80641e-06
5.11784e-06
5.44813e-06
5.79519e-06
6.1574e-06
6.5331e-06
6.91971e-06
7.3155e-06
7.71857e-06
8.12633e-06
8.53763e-06
8.9493e-06
9.36043e-06
9.7689e-06
1.01738e-05
1.05734e-05
1.09662e-05
1.1351e-05
1.17267e-05
1.20923e-05
1.2447e-05
1.27899e-05
1.31205e-05
1.34383e-05
1.37429e-05
1.40339e-05
1.43111e-05
1.45742e-05
1.48231e-05
1.50577e-05
1.52776e-05
1.54829e-05
1.56736e-05
1.58497e-05
1.60108e-05
1.6157e-05
1.62881e-05
1.64041e-05
1.65049e-05
1.65902e-05
1.66596e-05
1.6713e-05
1.67499e-05
1.677e-05
1.67726e-05
1.67572e-05
1.67233e-05
1.66697e-05
1.65955e-05
1.64992e-05
1.63793e-05
1.62337e-05
1.60603e-05
1.58577e-05
1.56242e-05
1.53568e-05
1.50527e-05
1.47095e-05
1.43252e-05
1.38986e-05
1.343e-05
1.2921e-05
1.23752e-05
1.17983e-05
1.11978e-05
1.05827e-05
9.96325e-06
9.34948e-06
8.75101e-06
8.17609e-06
7.63106e-06
7.12017e-06
6.64612e-06
6.20963e-06
5.81106e-06
5.44875e-06
5.12192e-06
4.82863e-06
4.56721e-06
4.33593e-06
4.13283e-06
3.95573e-06
3.80316e-06
3.67328e-06
3.56469e-06
3.47518e-06
3.40435e-06
3.35235e-06
3.31803e-06
3.30502e-06
3.31169e-06
3.34766e-06
3.42088e-06
5.50249e-06
5.68042e-06
5.93466e-06
6.23916e-06
6.59886e-06
7.00167e-06
7.43387e-06
7.89673e-06
8.38226e-06
8.88627e-06
9.40551e-06
9.93684e-06
1.04761e-05
1.10204e-05
1.1567e-05
1.21122e-05
1.26544e-05
1.31897e-05
1.37171e-05
1.42344e-05
1.47406e-05
1.52339e-05
1.57131e-05
1.61768e-05
1.66243e-05
1.70546e-05
1.74671e-05
1.78613e-05
1.82368e-05
1.85933e-05
1.89307e-05
1.92487e-05
1.95474e-05
1.98266e-05
2.00865e-05
2.03269e-05
2.05478e-05
2.07494e-05
2.09317e-05
2.10948e-05
2.12385e-05
2.13629e-05
2.14679e-05
2.15534e-05
2.16195e-05
2.16657e-05
2.16919e-05
2.16977e-05
2.16826e-05
2.16464e-05
2.15883e-05
2.15077e-05
2.14038e-05
2.12755e-05
2.11217e-05
2.09408e-05
2.07313e-05
2.04913e-05
2.02187e-05
1.99115e-05
1.95685e-05
1.91886e-05
1.87697e-05
1.83102e-05
1.78092e-05
1.72672e-05
1.66856e-05
1.6068e-05
1.54193e-05
1.47463e-05
1.40573e-05
1.33615e-05
1.26684e-05
1.19873e-05
1.13264e-05
1.06927e-05
1.00912e-05
9.52528e-06
8.99721e-06
8.50755e-06
8.05681e-06
7.64363e-06
7.26768e-06
6.9275e-06
6.62191e-06
6.34952e-06
6.10869e-06
5.89756e-06
5.71491e-06
5.55898e-06
5.42853e-06
5.32137e-06
5.23744e-06
5.1775e-06
5.14082e-06
5.13268e-06
5.1523e-06
5.21084e-06
5.32458e-06
8.08772e-06
8.35154e-06
8.72631e-06
9.17033e-06
9.68783e-06
1.02602e-05
1.08657e-05
1.15047e-05
1.21644e-05
1.28381e-05
1.35207e-05
1.42079e-05
1.48944e-05
1.55766e-05
1.62514e-05
1.69146e-05
1.75651e-05
1.81986e-05
1.88148e-05
1.94116e-05
1.99886e-05
2.05446e-05
2.10784e-05
2.15892e-05
2.20766e-05
2.254e-05
2.29792e-05
2.33938e-05
2.37839e-05
2.41495e-05
2.44905e-05
2.48071e-05
2.50995e-05
2.53677e-05
2.56119e-05
2.58323e-05
2.60289e-05
2.6202e-05
2.63517e-05
2.64782e-05
2.65814e-05
2.66615e-05
2.67182e-05
2.67517e-05
2.67619e-05
2.67485e-05
2.67112e-05
2.66498e-05
2.65637e-05
2.64526e-05
2.63157e-05
2.61523e-05
2.59616e-05
2.57426e-05
2.54941e-05
2.52147e-05
2.4903e-05
2.45573e-05
2.41762e-05
2.3758e-05
2.33015e-05
2.28058e-05
2.22724e-05
2.17003e-05
2.10901e-05
2.04437e-05
1.97641e-05
1.90561e-05
1.83258e-05
1.75808e-05
1.68293e-05
1.60803e-05
1.53421e-05
1.46227e-05
1.39287e-05
1.32655e-05
1.26371e-05
1.20458e-05
1.14934e-05
1.09802e-05
1.05068e-05
1.00718e-05
9.67525e-06
9.31589e-06
8.99284e-06
8.70493e-06
8.45078e-06
8.22867e-06
8.03764e-06
7.87598e-06
7.74271e-06
7.63564e-06
7.55528e-06
7.50345e-06
7.48001e-06
7.49298e-06
7.5426e-06
7.64576e-06
7.8177e-06
1.14904e-05
1.18493e-05
1.23637e-05
1.29657e-05
1.36565e-05
1.44091e-05
1.51922e-05
1.6005e-05
1.68297e-05
1.76575e-05
1.84826e-05
1.93003e-05
2.01048e-05
2.0893e-05
2.16621e-05
2.24081e-05
2.31312e-05
2.38267e-05
2.44959e-05
2.51368e-05
2.57501e-05
2.63348e-05
2.68905e-05
2.74165e-05
2.79131e-05
2.838e-05
2.88172e-05
2.92248e-05
2.96031e-05
2.99522e-05
3.02724e-05
3.05639e-05
3.08272e-05
3.10623e-05
3.12698e-05
3.14497e-05
3.16023e-05
3.17278e-05
3.18266e-05
3.18987e-05
3.19443e-05
3.19635e-05
3.19562e-05
3.19224e-05
3.1862e-05
3.1775e-05
3.16609e-05
3.15196e-05
3.13505e-05
3.11533e-05
3.09273e-05
3.06718e-05
3.03862e-05
3.00695e-05
2.97207e-05
2.93388e-05
2.89227e-05
2.84714e-05
2.7984e-05
2.74597e-05
2.68983e-05
2.62998e-05
2.56647e-05
2.49972e-05
2.42992e-05
2.35734e-05
2.28241e-05
2.2057e-05
2.12788e-05
2.04969e-05
1.97194e-05
1.89536e-05
1.82068e-05
1.74849e-05
1.6793e-05
1.61351e-05
1.55138e-05
1.49307e-05
1.43871e-05
1.38829e-05
1.34186e-05
1.29927e-05
1.26052e-05
1.22551e-05
1.19414e-05
1.16632e-05
1.14191e-05
1.12075e-05
1.10276e-05
1.08778e-05
1.07573e-05
1.0664e-05
1.05993e-05
1.05665e-05
1.05662e-05
1.06103e-05
1.06998e-05
1.08582e-05
1.11048e-05
1.58545e-05
1.62993e-05
1.69463e-05
1.76972e-05
1.85469e-05
1.94603e-05
2.03965e-05
2.13537e-05
2.23101e-05
2.32556e-05
2.41849e-05
2.50936e-05
2.59765e-05
2.68312e-05
2.7656e-05
2.84474e-05
2.92066e-05
2.99296e-05
3.06185e-05
3.1272e-05
3.18913e-05
3.24762e-05
3.30266e-05
3.35422e-05
3.40236e-05
3.44708e-05
3.48841e-05
3.52637e-05
3.56102e-05
3.59239e-05
3.62052e-05
3.64545e-05
3.66723e-05
3.68588e-05
3.70146e-05
3.714e-05
3.7235e-05
3.73003e-05
3.73361e-05
3.73425e-05
3.73198e-05
3.72682e-05
3.71875e-05
3.70779e-05
3.69394e-05
3.67718e-05
3.65749e-05
3.63487e-05
3.60926e-05
3.58065e-05
3.54898e-05
3.51421e-05
3.47629e-05
3.43517e-05
3.39079e-05
3.34309e-05
3.29204e-05
3.23762e-05
3.17983e-05
3.11869e-05
3.05431e-05
2.98683e-05
2.91644e-05
2.84345e-05
2.76853e-05
2.69214e-05
2.61468e-05
2.53671e-05
2.4589e-05
2.3819e-05
2.30636e-05
2.23285e-05
2.1619e-05
2.09388e-05
2.02914e-05
1.96792e-05
1.91038e-05
1.85658e-05
1.8066e-05
1.76037e-05
1.71794e-05
1.67908e-05
1.64384e-05
1.61206e-05
1.58368e-05
1.55857e-05
1.53663e-05
1.51765e-05
1.50161e-05
1.48834e-05
1.47783e-05
1.46984e-05
1.46464e-05
1.46278e-05
1.46441e-05
1.47121e-05
1.48336e-05
1.50399e-05
1.53565e-05
2.12181e-05
2.17181e-05
2.24647e-05
2.33304e-05
2.43011e-05
2.53349e-05
2.63824e-05
2.74411e-05
2.84864e-05
2.95074e-05
3.04998e-05
3.146e-05
3.23837e-05
3.32694e-05
3.41163e-05
3.49216e-05
3.56876e-05
3.64105e-05
3.70934e-05
3.77355e-05
3.83386e-05
3.89028e-05
3.94283e-05
3.99153e-05
4.03643e-05
4.07757e-05
4.11501e-05
4.14877e-05
4.17893e-05
4.20552e-05
4.22861e-05
4.24824e-05
4.26447e-05
4.27734e-05
4.2869e-05
4.29319e-05
4.29625e-05
4.29611e-05
4.29283e-05
4.28643e-05
4.27693e-05
4.26437e-05
4.24875e-05
4.23009e-05
4.2084e-05
4.18369e-05
4.15595e-05
4.12519e-05
4.09139e-05
4.05456e-05
4.01468e-05
3.97174e-05
3.92575e-05
3.8767e-05
3.82462e-05
3.76953e-05
3.71147e-05
3.65056e-05
3.58689e-05
3.52064e-05
3.45204e-05
3.38137e-05
3.30897e-05
3.23529e-05
3.16079e-05
3.08638e-05
3.0125e-05
2.93951e-05
2.86791e-05
2.79817e-05
2.7307e-05
2.66583e-05
2.60381e-05
2.54481e-05
2.48896e-05
2.43638e-05
2.3871e-05
2.34109e-05
2.29837e-05
2.2588e-05
2.22244e-05
2.18896e-05
2.15842e-05
2.13065e-05
2.10558e-05
2.08312e-05
2.06313e-05
2.04544e-05
2.03006e-05
2.01685e-05
2.00589e-05
1.99694e-05
1.99046e-05
1.98723e-05
1.98758e-05
1.9937e-05
2.00591e-05
2.02824e-05
2.06394e-05
2.7518e-05
2.80305e-05
2.88302e-05
2.97658e-05
3.08111e-05
3.19196e-05
3.30347e-05
3.4153e-05
3.52473e-05
3.63068e-05
3.73277e-05
3.83075e-05
3.92426e-05
4.01322e-05
4.09764e-05
4.17729e-05
4.25248e-05
4.32286e-05
4.3888e-05
4.45028e-05
4.5075e-05
4.56051e-05
4.60936e-05
4.65406e-05
4.69471e-05
4.73135e-05
4.76405e-05
4.79285e-05
4.81784e-05
4.83906e-05
4.85658e-05
4.87046e-05
4.88076e-05
4.88755e-05
4.89087e-05
4.89078e-05
4.88733e-05
4.88057e-05
4.87055e-05
4.85733e-05
4.84095e-05
4.82144e-05
4.79884e-05
4.77318e-05
4.74451e-05
4.71285e-05
4.67824e-05
4.64072e-05
4.60031e-05
4.55706e-05
4.51103e-05
4.46225e-05
4.41083e-05
4.35683e-05
4.30037e-05
4.24159e-05
4.18066e-05
4.11782e-05
4.05329e-05
3.9874e-05
3.92051e-05
3.85301e-05
3.78536e-05
3.71803e-05
3.65151e-05
3.58629e-05
3.52329e-05
3.46241e-05
3.40383e-05
3.34773e-05
3.29419e-05
3.2432e-05
3.19474e-05
3.14874e-05
3.10515e-05
3.06394e-05
3.02504e-05
2.98835e-05
2.95383e-05
2.92129e-05
2.89079e-05
2.86194e-05
2.83485e-05
2.80933e-05
2.78535e-05
2.76286e-05
2.74177e-05
2.72193e-05
2.70345e-05
2.68627e-05
2.67056e-05
2.65616e-05
2.64372e-05
2.63434e-05
2.62853e-05
2.62906e-05
2.63647e-05
2.65572e-05
2.69086e-05
3.46447e-05
3.51268e-05
3.59339e-05
3.68962e-05
3.79739e-05
3.9117e-05
4.02633e-05
4.14074e-05
4.25202e-05
4.35903e-05
4.46149e-05
4.55917e-05
4.6518e-05
4.73935e-05
4.82189e-05
4.89923e-05
4.97172e-05
5.03907e-05
5.10167e-05
5.15954e-05
5.21291e-05
5.26186e-05
5.30644e-05
5.34668e-05
5.3827e-05
5.41455e-05
5.44229e-05
5.46599e-05
5.48575e-05
5.50162e-05
5.51368e-05
5.52199e-05
5.52665e-05
5.52771e-05
5.52525e-05
5.51934e-05
5.51004e-05
5.49743e-05
5.48158e-05
5.46257e-05
5.44046e-05
5.41532e-05
5.38722e-05
5.35623e-05
5.32242e-05
5.28589e-05
5.24669e-05
5.20495e-05
5.16075e-05
5.11421e-05
5.06545e-05
5.01463e-05
4.96193e-05
4.90753e-05
4.85167e-05
4.79462e-05
4.73668e-05
4.67821e-05
4.61958e-05
4.56121e-05
4.50352e-05
4.44698e-05
4.39201e-05
4.33902e-05
4.28833e-05
4.24014e-05
4.195e-05
4.15268e-05
4.11286e-05
4.07531e-05
4.03974e-05
4.0058e-05
3.97322e-05
3.94171e-05
3.91109e-05
3.88121e-05
3.85199e-05
3.82326e-05
3.79498e-05
3.76694e-05
3.73927e-05
3.71156e-05
3.684e-05
3.65644e-05
3.62895e-05
3.60155e-05
3.57423e-05
3.54693e-05
3.5199e-05
3.49318e-05
3.46707e-05
3.44153e-05
3.41743e-05
3.3962e-05
3.3786e-05
3.36798e-05
3.3652e-05
3.37615e-05
3.40599e-05
4.24969e-05
4.29124e-05
4.36883e-05
4.46427e-05
4.57199e-05
4.68677e-05
4.80185e-05
4.91647e-05
5.02753e-05
5.13379e-05
5.23504e-05
5.33105e-05
5.42164e-05
5.50678e-05
5.58659e-05
5.66092e-05
5.73017e-05
5.79404e-05
5.85297e-05
5.90701e-05
5.95642e-05
6.00127e-05
6.04165e-05
6.07759e-05
6.10922e-05
6.13659e-05
6.15979e-05
6.17888e-05
6.194e-05
6.20519e-05
6.21255e-05
6.21617e-05
6.21615e-05
6.21257e-05
6.20552e-05
6.19511e-05
6.18141e-05
6.16454e-05
6.14461e-05
6.12172e-05
6.09597e-05
6.06749e-05
6.03639e-05
6.00278e-05
5.9668e-05
5.92861e-05
5.88834e-05
5.84619e-05
5.80232e-05
5.75695e-05
5.71032e-05
5.66266e-05
5.61429e-05
5.56551e-05
5.51667e-05
5.46816e-05
5.42038e-05
5.37378e-05
5.32879e-05
5.28583e-05
5.24532e-05
5.20761e-05
5.17294e-05
5.14148e-05
5.11321e-05
5.08799e-05
5.06555e-05
5.04558e-05
5.02727e-05
5.00998e-05
4.99308e-05
4.97596e-05
4.95818e-05
4.93931e-05
4.91911e-05
4.89744e-05
4.87423e-05
4.84932e-05
4.82275e-05
4.79436e-05
4.76438e-05
4.73243e-05
4.69884e-05
4.66353e-05
4.62671e-05
4.5885e-05
4.54902e-05
4.50835e-05
4.46686e-05
4.42474e-05
4.38243e-05
4.34003e-05
4.29864e-05
4.26003e-05
4.22527e-05
4.19825e-05
4.18025e-05
4.17802e-05
4.19772e-05
5.10074e-05
5.13274e-05
5.20433e-05
5.29643e-05
5.40182e-05
5.51505e-05
5.6289e-05
5.74228e-05
5.8519e-05
5.95644e-05
6.05569e-05
6.14944e-05
6.23753e-05
6.31997e-05
6.3969e-05
6.46818e-05
6.53425e-05
6.59484e-05
6.6504e-05
6.70101e-05
6.74693e-05
6.78828e-05
6.82513e-05
6.85754e-05
6.88564e-05
6.90949e-05
6.92919e-05
6.94484e-05
6.95655e-05
6.96443e-05
6.96857e-05
6.96908e-05
6.96609e-05
6.9597e-05
6.95005e-05
6.93727e-05
6.92147e-05
6.90281e-05
6.88145e-05
6.85753e-05
6.8312e-05
6.80266e-05
6.77207e-05
6.73963e-05
6.70553e-05
6.67002e-05
6.63332e-05
6.59572e-05
6.55747e-05
6.5189e-05
6.48034e-05
6.44214e-05
6.4047e-05
6.36843e-05
6.33375e-05
6.30111e-05
6.27094e-05
6.24367e-05
6.21967e-05
6.19925e-05
6.18262e-05
6.16986e-05
6.16089e-05
6.15545e-05
6.15308e-05
6.15313e-05
6.15477e-05
6.15716e-05
6.15933e-05
6.16033e-05
6.15931e-05
6.15553e-05
6.14846e-05
6.13768e-05
6.12298e-05
6.1043e-05
6.08162e-05
6.05491e-05
6.02428e-05
5.98969e-05
5.9515e-05
5.90941e-05
5.86388e-05
5.81497e-05
5.76299e-05
5.70822e-05
5.65092e-05
5.59129e-05
5.52987e-05
5.46699e-05
5.40325e-05
5.33888e-05
5.27522e-05
5.21438e-05
5.15777e-05
5.10983e-05
5.0723e-05
5.05279e-05
5.05842e-05
6.0146e-05
6.03481e-05
6.09833e-05
6.18538e-05
6.28703e-05
6.39755e-05
6.50928e-05
6.62076e-05
6.7285e-05
6.83105e-05
6.9282e-05
7.01975e-05
7.10554e-05
7.1856e-05
7.26008e-05
7.32888e-05
7.39245e-05
7.45053e-05
7.50361e-05
7.55176e-05
7.59529e-05
7.63431e-05
7.66892e-05
7.69918e-05
7.72523e-05
7.74716e-05
7.76507e-05
7.77908e-05
7.78933e-05
7.79594e-05
7.79904e-05
7.79876e-05
7.79526e-05
7.78868e-05
7.77921e-05
7.76699e-05
7.75222e-05
7.73508e-05
7.71579e-05
7.69456e-05
7.67161e-05
7.64719e-05
7.62155e-05
7.59494e-05
7.56767e-05
7.54003e-05
7.51237e-05
7.48503e-05
7.45838e-05
7.43282e-05
7.40875e-05
7.38659e-05
7.36679e-05
7.34978e-05
7.33598e-05
7.3258e-05
7.31957e-05
7.31759e-05
7.32001e-05
7.32688e-05
7.33806e-05
7.35325e-05
7.37192e-05
7.39334e-05
7.41657e-05
7.44049e-05
7.46384e-05
7.48529e-05
7.50389e-05
7.51853e-05
7.52831e-05
7.53245e-05
7.53047e-05
7.52201e-05
7.50698e-05
7.48541e-05
7.45742e-05
7.42309e-05
7.38266e-05
7.33621e-05
7.28423e-05
7.22653e-05
7.16369e-05
7.0959e-05
7.0236e-05
6.94722e-05
6.86714e-05
6.78371e-05
6.69765e-05
6.60941e-05
6.51974e-05
6.42902e-05
6.33883e-05
6.25164e-05
6.16923e-05
6.09657e-05
6.03596e-05
5.99582e-05
5.98436e-05
6.9913e-05
6.99797e-05
7.05204e-05
7.133e-05
7.23023e-05
7.3376e-05
7.44699e-05
7.55657e-05
7.66259e-05
7.76351e-05
7.85906e-05
7.94903e-05
8.03329e-05
8.11185e-05
8.18489e-05
8.25232e-05
8.31462e-05
8.37153e-05
8.42356e-05
8.47081e-05
8.51359e-05
8.55206e-05
8.5863e-05
8.61639e-05
8.6425e-05
8.6647e-05
8.68316e-05
8.69799e-05
8.70937e-05
8.71743e-05
8.72234e-05
8.72427e-05
8.72341e-05
8.71996e-05
8.71413e-05
8.70613e-05
8.69621e-05
8.68461e-05
8.6716e-05
8.65746e-05
8.64248e-05
8.62699e-05
8.61128e-05
8.59571e-05
8.58064e-05
8.56645e-05
8.55354e-05
8.54232e-05
8.5332e-05
8.52664e-05
8.52303e-05
8.52281e-05
8.5264e-05
8.53414e-05
8.54635e-05
8.56328e-05
8.58506e-05
8.61171e-05
8.64307e-05
8.67882e-05
8.71842e-05
8.76113e-05
8.80597e-05
8.85182e-05
8.8973e-05
8.94097e-05
8.9812e-05
9.01645e-05
9.0459e-05
9.06844e-05
9.08316e-05
9.08936e-05
9.08667e-05
9.07483e-05
9.05387e-05
9.02396e-05
8.98535e-05
8.93822e-05
8.88296e-05
8.81975e-05
8.74921e-05
8.67125e-05
8.58657e-05
8.49546e-05
8.3985e-05
8.29625e-05
8.18923e-05
8.07794e-05
7.96324e-05
7.84574e-05
7.72633e-05
7.60555e-05
7.48523e-05
7.36817e-05
7.2566e-05
7.15602e-05
7.06938e-05
7.00589e-05
6.97498e-05
8.03309e-05
8.02481e-05
8.0686e-05
8.14301e-05
8.23571e-05
8.34007e-05
8.4475e-05
8.55571e-05
8.66075e-05
8.7609e-05
8.85587e-05
8.94541e-05
9.02941e-05
9.10787e-05
9.18099e-05
9.24868e-05
9.31144e-05
9.36902e-05
9.42197e-05
9.47039e-05
9.51462e-05
9.55482e-05
9.5911e-05
9.62356e-05
9.65237e-05
9.67763e-05
9.69953e-05
9.71819e-05
9.73384e-05
9.74663e-05
9.75678e-05
9.76447e-05
9.76996e-05
9.77348e-05
9.77528e-05
9.77565e-05
9.77486e-05
9.77323e-05
9.77109e-05
9.76878e-05
9.76664e-05
9.76505e-05
9.76438e-05
9.76504e-05
9.76742e-05
9.77196e-05
9.77906e-05
9.78918e-05
9.80271e-05
9.82007e-05
9.84162e-05
9.86769e-05
9.89859e-05
9.93449e-05
9.97551e-05
0.000100217
0.000100728
0.000101285
0.000101884
0.000102517
0.000103175
0.000103846
0.000104518
0.000105175
0.000105802
0.000106383
0.000106895
0.000107328
0.000107674
0.000107921
0.000108063
0.000108092
0.000108006
0.000107804
0.000107488
0.00010706
0.000106523
0.000105882
0.00010514
0.0001043
0.00010337
0.000102351
0.000101248
0.000100068
9.88163e-05
9.75e-05
9.61258e-05
9.47002e-05
9.32334e-05
9.17328e-05
9.0209e-05
8.86689e-05
8.71332e-05
8.56338e-05
8.41977e-05
8.28855e-05
8.17337e-05
8.08429e-05
8.03206e-05
9.14367e-05
9.11934e-05
9.15245e-05
9.22033e-05
9.30889e-05
9.41086e-05
9.51716e-05
9.62504e-05
9.73028e-05
9.83101e-05
9.92687e-05
0.000100176
0.00010103
0.000101832
0.000102584
0.000103284
0.000103938
0.000104544
0.000105107
0.000105628
0.000106111
0.000106558
0.00010697
0.000107348
0.000107694
0.000108009
0.000108296
0.000108555
0.00010879
0.000109002
0.000109194
0.000109367
0.000109526
0.000109672
0.000109808
0.000109939
0.000110067
0.000110195
0.000110328
0.000110469
0.000110623
0.000110793
0.000110983
0.000111198
0.000111442
0.000111718
0.000112032
0.000112386
0.000112784
0.00011323
0.000113725
0.000114272
0.000114872
0.000115523
0.000116226
0.000116976
0.000117768
0.000118598
0.000119455
0.000120329
0.000121208
0.000122077
0.000122922
0.000123724
0.000124468
0.000125138
0.000125704
0.000126164
0.000126509
0.00012673
0.000126819
0.000126771
0.000126585
0.00012626
0.000125799
0.000125206
0.000124485
0.00012364
0.000122676
0.000121599
0.000120415
0.000119125
0.000117739
0.00011626
0.000114698
0.000113059
0.000111352
0.000109586
0.000107771
0.000105918
0.000104036
0.000102137
0.000100242
9.83876e-05
9.6606e-05
9.49637e-05
9.35053e-05
9.23398e-05
9.15893e-05
0.000103276
0.000102864
0.000103088
0.000103706
0.000104558
0.000105564
0.000106628
0.000107718
0.000108788
0.000109818
0.000110805
0.000111743
0.000112634
0.000113475
0.000114271
0.000115019
0.000115725
0.000116387
0.000117011
0.000117598
0.000118151
0.000118674
0.000119166
0.000119631
0.000120068
0.000120481
0.000120871
0.00012124
0.00012159
0.000121925
0.000122245
0.000122555
0.000122858
0.000123156
0.000123452
0.000123751
0.000124056
0.000124371
0.0001247
0.000125047
0.000125415
0.00012581
0.000126235
0.000126694
0.000127191
0.000127729
0.000128312
0.000128943
0.000129624
0.000130356
0.00013114
0.000131977
0.000132864
0.000133798
0.000134776
0.000135792
0.000136837
0.000137903
0.000138978
0.000140048
0.0001411
0.000142116
0.000143081
0.000143976
0.000144785
0.000145491
0.000146064
0.000146507
0.00014681
0.000146964
0.000146964
0.000146805
0.000146487
0.000146009
0.000145376
0.000144592
0.000143661
0.000142589
0.000141381
0.000140043
0.000138582
0.000137001
0.000135308
0.000133509
0.000131614
0.00012963
0.000127569
0.000125438
0.000123253
0.000121022
0.000118761
0.000116479
0.000114201
0.00011197
0.000109821
0.000107829
0.000106045
0.000104589
0.000103599
0.000115899
0.000115312
0.000115433
0.000115996
0.000116826
0.000117832
0.000118913
0.000120031
0.000121138
0.000122212
0.000123248
0.000124241
0.00012519
0.000126097
0.000126962
0.000127785
0.000128572
0.000129319
0.000130034
0.000130717
0.000131373
0.000132003
0.00013261
0.000133194
0.000133759
0.000134304
0.000134833
0.000135348
0.000135851
0.000136345
0.000136832
0.000137316
0.0001378
0.000138287
0.00013878
0.000139284
0.000139802
0.000140338
0.000140897
0.000141481
0.000142095
0.000142743
0.000143428
0.000144154
0.000144923
0.000145739
0.000146603
0.000147518
0.000148483
0.000149499
0.000150564
0.000151676
0.000152831
0.000154024
0.000155247
0.000156494
0.000157752
0.000159012
0.000160258
0.000161477
0.000162652
0.000163767
0.000164803
0.000165744
0.000166573
0.000167274
0.000167817
0.000168207
0.000168435
0.000168494
0.000168379
0.000168085
0.000167613
0.000166963
0.000166139
0.000165145
0.000163988
0.000162673
0.000161205
0.000159591
0.000157839
0.000155951
0.000153936
0.000151801
0.000149556
0.000147211
0.000144777
0.000142265
0.00013969
0.000137065
0.000134403
0.000131719
0.000129041
0.000126413
0.000123879
0.000121518
0.000119395
0.000117636
0.000116396
0.000129356
0.000128591
0.000128614
0.000129133
0.000129954
0.000130976
0.000132093
0.000133259
0.000134424
0.000135564
0.000136672
0.000137744
0.000138779
0.000139777
0.000140739
0.000141666
0.000142562
0.000143425
0.000144261
0.000145071
0.000145861
0.000146632
0.000147385
0.000148123
0.000148847
0.000149559
0.000150261
0.000150955
0.000151644
0.000152331
0.000153018
0.000153709
0.000154406
0.000155113
0.000155834
0.000156571
0.000157329
0.000158112
0.000158924
0.000159767
0.000160645
0.000161561
0.000162519
0.000163521
0.000164569
0.000165663
0.000166806
0.000167997
0.000169234
0.000170517
0.000171842
0.000173203
0.000174596
0.000176013
0.000177444
0.00017888
0.000180309
0.000181717
0.00018309
0.000184412
0.000185666
0.000186836
0.000187903
0.000188852
0.000189666
0.000190328
0.000190812
0.000191125
0.000191257
0.000191202
0.000190954
0.00019051
0.00018987
0.000189036
0.00018801
0.000186798
0.000185406
0.000183839
0.000182103
0.000180205
0.000178153
0.000175949
0.000173603
0.000171123
0.000168518
0.000165799
0.00016298
0.000160073
0.000157096
0.000154061
0.000150985
0.000147885
0.000144789
0.000141749
0.000138815
0.000136073
0.000133596
0.000131524
0.000130028
0.000143692
0.000142751
0.000142682
0.000143169
0.000143997
0.000145053
0.000146224
0.00014746
0.000148706
0.000149935
0.000151141
0.000152318
0.000153464
0.00015458
0.000155668
0.000156726
0.00015776
0.000158768
0.000159754
0.000160723
0.000161676
0.000162617
0.000163547
0.000164468
0.000165382
0.00016629
0.000167195
0.000168098
0.000169002
0.000169909
0.000170822
0.000171745
0.00017268
0.00017363
0.000174598
0.000175589
0.000176605
0.000177649
0.000178726
0.000179837
0.000180986
0.000182175
0.000183406
0.00018468
0.000185998
0.00018736
0.000188766
0.000190215
0.000191702
0.000193225
0.000194779
0.000196357
0.000197952
0.000199554
0.000201153
0.000202737
0.000204294
0.000205809
0.000207267
0.000208652
0.000209947
0.000211136
0.000212203
0.00021313
0.000213903
0.000214503
0.000214911
0.00021513
0.000215153
0.000214972