/*--------------------------------*- C++ -*----------------------------------*\
| =========                 |                                                 |
| \\      /  F ield         | OpenFOAM: The Open Source CFD Toolbox           |
|  \\    /   O peration     | Version:  2.3.1                                 |
|   \\  /    A nd           | Web:      www.OpenFOAM.org                      |
|    \\/     M anipulation  |                                                 |
\*---------------------------------------------------------------------------*/
FoamFile
{
    version     2.0;
    format      ascii;
    class       volScalarField;
    location    "10000";
    object      p;
}
// * * * * * * * * * * * * * * * * * * * * * * * * * * * * * * * * * * * * * //

dimensions      [0 2 -2 0 0 0 0];

internalField   nonuniform List<scalar> 
14751
(
2.62054e-11
2.69616e-06
6.14621e-06
9.63099e-06
1.34874e-05
1.75325e-05
2.172e-05
2.60426e-05
3.04248e-05
3.48333e-05
3.92182e-05
4.35492e-05
4.7782e-05
5.18881e-05
5.58443e-05
5.96191e-05
6.32078e-05
6.65838e-05
6.97482e-05
7.26854e-05
7.53989e-05
7.78842e-05
8.01452e-05
8.21815e-05
8.40007e-05
8.56072e-05
8.70074e-05
8.82095e-05
8.92195e-05
9.00458e-05
9.06963e-05
9.11785e-05
9.15002e-05
9.16687e-05
9.16906e-05
9.15745e-05
9.13248e-05
9.09488e-05
9.04512e-05
8.98397e-05
8.91172e-05
8.82891e-05
8.73606e-05
8.63338e-05
8.52149e-05
8.40062e-05
8.27112e-05
8.13334e-05
7.9875e-05
7.83395e-05
7.67292e-05
7.50459e-05
7.32931e-05
7.14724e-05
6.9586e-05
6.76365e-05
6.56254e-05
6.35553e-05
6.14278e-05
5.92425e-05
5.70032e-05
5.47081e-05
5.23582e-05
4.99545e-05
4.74939e-05
4.49769e-05
4.24018e-05
3.97707e-05
3.70836e-05
3.43454e-05
3.15639e-05
2.87491e-05
2.59161e-05
2.30809e-05
2.02609e-05
1.74739e-05
1.47366e-05
1.20618e-05
9.46573e-06
6.95357e-06
4.54717e-06
2.2471e-06
7.59024e-08
-1.95819e-06
-3.83693e-06
-5.54444e-06
-7.05956e-06
-8.36515e-06
-9.43637e-06
-1.0256e-05
-1.07895e-05
-1.1028e-05
-1.09451e-05
-1.05036e-05
-9.73287e-06
-8.55345e-06
-7.00256e-06
-5.06832e-06
-3.00166e-06
1.56831e-09
2.69774e-06
6.1475e-06
9.63212e-06
1.34883e-05
1.75332e-05
2.17206e-05
2.60432e-05
3.04253e-05
3.48337e-05
3.92185e-05
4.35494e-05
4.77822e-05
5.18882e-05
5.58443e-05
5.96191e-05
6.32076e-05
6.65835e-05
6.97479e-05
7.26849e-05
7.53983e-05
7.78835e-05
8.01445e-05
8.21807e-05
8.39999e-05
8.56064e-05
8.70066e-05
8.82087e-05
8.92187e-05
9.00451e-05
9.06956e-05
9.11778e-05
9.14997e-05
9.16681e-05
9.16902e-05
9.15741e-05
9.13244e-05
9.09485e-05
9.0451e-05
8.98395e-05
8.91171e-05
8.8289e-05
8.73605e-05
8.63338e-05
8.52149e-05
8.40063e-05
8.27113e-05
8.13335e-05
7.98752e-05
7.83396e-05
7.67294e-05
7.50461e-05
7.32934e-05
7.14726e-05
6.95863e-05
6.76367e-05
6.56256e-05
6.35555e-05
6.1428e-05
5.92426e-05
5.70032e-05
5.47081e-05
5.2358e-05
4.99542e-05
4.74934e-05
4.49762e-05
4.24009e-05
3.97697e-05
3.70824e-05
3.43442e-05
3.15626e-05
2.8748e-05
2.59152e-05
2.30802e-05
2.02606e-05
1.7474e-05
1.47371e-05
1.20627e-05
9.46708e-06
6.95532e-06
4.54928e-06
2.24953e-06
7.85979e-08
-1.95528e-06
-3.83385e-06
-5.54124e-06
-7.05628e-06
-8.36182e-06
-9.43303e-06
-1.02527e-05
-1.07862e-05
-1.10248e-05
-1.0942e-05
-1.05006e-05
-9.73004e-06
-8.55087e-06
-7.0002e-06
-5.06606e-06
-2.99959e-06
3.22537e-09
2.69846e-06
6.14799e-06
9.63201e-06
1.34878e-05
1.75327e-05
2.17203e-05
2.60431e-05
3.04255e-05
3.48342e-05
3.92191e-05
4.35503e-05
4.77833e-05
5.18894e-05
5.58457e-05
5.96205e-05
6.3209e-05
6.65847e-05
6.97489e-05
7.26857e-05
7.53988e-05
7.78838e-05
8.01445e-05
8.21805e-05
8.39996e-05
8.56061e-05
8.70062e-05
8.82082e-05
8.92182e-05
9.00446e-05
9.06951e-05
9.11774e-05
9.14992e-05
9.16677e-05
9.16898e-05
9.15738e-05
9.13241e-05
9.09483e-05
9.04508e-05
8.98394e-05
8.9117e-05
8.8289e-05
8.73606e-05
8.63339e-05
8.5215e-05
8.40065e-05
8.27116e-05
8.13338e-05
7.98755e-05
7.834e-05
7.67298e-05
7.50465e-05
7.32938e-05
7.14731e-05
6.95868e-05
6.76372e-05
6.56261e-05
6.35559e-05
6.14284e-05
5.9243e-05
5.70035e-05
5.47082e-05
5.23581e-05
4.9954e-05
4.7493e-05
4.49756e-05
4.24002e-05
3.97687e-05
3.70813e-05
3.4343e-05
3.15615e-05
2.8747e-05
2.59145e-05
2.30799e-05
2.02607e-05
1.74746e-05
1.47383e-05
1.20644e-05
9.4693e-06
6.95801e-06
4.55238e-06
2.25295e-06
8.22339e-08
-1.95152e-06
-3.83006e-06
-5.5375e-06
-7.05261e-06
-8.35827e-06
-9.42958e-06
-1.02494e-05
-1.0783e-05
-1.10218e-05
-1.09391e-05
-1.04978e-05
-9.72738e-06
-8.54838e-06
-6.998e-06
-5.06379e-06
-2.99865e-06
4.3729e-09
2.69784e-06
6.14721e-06
9.63046e-06
1.34858e-05
1.7531e-05
2.17188e-05
2.60422e-05
3.04253e-05
3.48345e-05
3.922e-05
4.35516e-05
4.77851e-05
5.18916e-05
5.58482e-05
5.96231e-05
6.32115e-05
6.6587e-05
6.97508e-05
7.26871e-05
7.53998e-05
7.78844e-05
8.01447e-05
8.21804e-05
8.39992e-05
8.56054e-05
8.70054e-05
8.82072e-05
8.92172e-05
9.00434e-05
9.06939e-05
9.11761e-05
9.1498e-05
9.16665e-05
9.16886e-05
9.15726e-05
9.13231e-05
9.09473e-05
9.04499e-05
8.98386e-05
8.91162e-05
8.82883e-05
8.736e-05
8.63335e-05
8.52147e-05
8.40063e-05
8.27115e-05
8.13339e-05
7.98757e-05
7.83403e-05
7.67302e-05
7.50471e-05
7.32945e-05
7.14739e-05
6.95876e-05
6.76382e-05
6.56271e-05
6.3557e-05
6.14296e-05
5.92442e-05
5.70047e-05
5.47095e-05
5.23593e-05
4.99553e-05
4.74943e-05
4.49769e-05
4.24015e-05
3.97701e-05
3.70827e-05
3.43445e-05
3.15631e-05
2.87487e-05
2.59164e-05
2.30819e-05
2.02631e-05
1.74773e-05
1.47414e-05
1.20679e-05
9.47319e-06
6.96222e-06
4.55689e-06
2.25761e-06
8.69319e-08
-1.94692e-06
-3.82566e-06
-5.53339e-06
-7.04882e-06
-8.35482e-06
-9.42645e-06
-1.02466e-05
-1.07805e-05
-1.10196e-05
-1.09372e-05
-1.04958e-05
-9.72572e-06
-8.54688e-06
-6.99679e-06
-5.06213e-06
-2.99975e-06
4.29703e-09
2.69542e-06
6.14451e-06
9.62691e-06
1.34816e-05
1.75271e-05
2.17153e-05
2.60394e-05
3.04232e-05
3.48332e-05
3.92193e-05
4.35515e-05
4.77854e-05
5.18924e-05
5.58493e-05
5.96242e-05
6.32125e-05
6.65876e-05
6.97508e-05
7.26866e-05
7.53986e-05
7.78826e-05
8.01424e-05
8.21777e-05
8.39961e-05
8.5602e-05
8.70018e-05
8.82035e-05
8.92133e-05
9.00395e-05
9.069e-05
9.11722e-05
9.14942e-05
9.16628e-05
9.1685e-05
9.15692e-05
9.13198e-05
9.09442e-05
9.04471e-05
8.9836e-05
8.91139e-05
8.82863e-05
8.73582e-05
8.63319e-05
8.52135e-05
8.40053e-05
8.27108e-05
8.13334e-05
7.98755e-05
7.83404e-05
7.67307e-05
7.50478e-05
7.32955e-05
7.14751e-05
6.95892e-05
6.764e-05
6.56292e-05
6.35593e-05
6.14321e-05
5.9247e-05
5.70078e-05
5.47129e-05
5.2363e-05
4.99593e-05
4.74988e-05
4.49819e-05
4.24072e-05
3.97765e-05
3.709e-05
3.43526e-05
3.1572e-05
2.87583e-05
2.59264e-05
2.30922e-05
2.02734e-05
1.74875e-05
1.47513e-05
1.20774e-05
9.48244e-06
6.97109e-06
4.56544e-06
2.26573e-06
9.45602e-08
-1.93989e-06
-3.81932e-06
-5.5278e-06
-7.04396e-06
-8.35071e-06
-9.423e-06
-1.02439e-05
-1.07784e-05
-1.10179e-05
-1.0936e-05
-1.04948e-05
-9.72522e-06
-8.54665e-06
-6.99695e-06
-5.0614e-06
-3.00336e-06
1.881e-09
2.69027e-06
6.13862e-06
9.62001e-06
1.34736e-05
1.75193e-05
2.17078e-05
2.60326e-05
3.04172e-05
3.48278e-05
3.92146e-05
4.35473e-05
4.77819e-05
5.18893e-05
5.58466e-05
5.96216e-05
6.32098e-05
6.65844e-05
6.97471e-05
7.26822e-05
7.53935e-05
7.78769e-05
8.01362e-05
8.21711e-05
8.39892e-05
8.55949e-05
8.69946e-05
8.81962e-05
8.92061e-05
9.00325e-05
9.06831e-05
9.11656e-05
9.14878e-05
9.16567e-05
9.16793e-05
9.15638e-05
9.13148e-05
9.09396e-05
9.04429e-05
8.98322e-05
8.91105e-05
8.82834e-05
8.73557e-05
8.63299e-05
8.52119e-05
8.40042e-05
8.27101e-05
8.13333e-05
7.98758e-05
7.83412e-05
7.67319e-05
7.50495e-05
7.32976e-05
7.14777e-05
6.95922e-05
6.76434e-05
6.5633e-05
6.35636e-05
6.14367e-05
5.92521e-05
5.70133e-05
5.47188e-05
5.23695e-05
4.99665e-05
4.75067e-05
4.49908e-05
4.24173e-05
3.9788e-05
3.71031e-05
3.43674e-05
3.15886e-05
2.87766e-05
2.59462e-05
2.31131e-05
2.02949e-05
1.7509e-05
1.47724e-05
1.20977e-05
9.50181e-06
6.98928e-06
4.58245e-06
2.2814e-06
1.08833e-07
-1.92712e-06
-3.80812e-06
-5.51819e-06
-7.03587e-06
-8.34411e-06
-9.41773e-06
-1.024e-05
-1.07756e-05
-1.10161e-05
-1.09352e-05
-1.04944e-05
-9.72585e-06
-8.5479e-06
-6.99889e-06
-5.06215e-06
-3.01007e-06
-3.94329e-09
2.68154e-06
6.12848e-06
9.60876e-06
1.34609e-05
1.75065e-05
2.16952e-05
2.60206e-05
3.0406e-05
3.48175e-05
3.9205e-05
4.35384e-05
4.77737e-05
5.18818e-05
5.58397e-05
5.96149e-05
6.32031e-05
6.65775e-05
6.97397e-05
7.26743e-05
7.53851e-05
7.7868e-05
8.01269e-05
8.21616e-05
8.39796e-05
8.55853e-05
8.69851e-05
8.81868e-05
8.9197e-05
9.00236e-05
9.06747e-05
9.11575e-05
9.14802e-05
9.16496e-05
9.16727e-05
9.15578e-05
9.13093e-05
9.09347e-05
9.04386e-05
8.98285e-05
8.91075e-05
8.82809e-05
8.73539e-05
8.63287e-05
8.52113e-05
8.40042e-05
8.27108e-05
8.13345e-05
7.98777e-05
7.83436e-05
7.67349e-05
7.50531e-05
7.33018e-05
7.14825e-05
6.95976e-05
6.76494e-05
6.56395e-05
6.35706e-05
6.14443e-05
5.92603e-05
5.7022e-05
5.47282e-05
5.23796e-05
4.99774e-05
4.75186e-05
4.50039e-05
4.24317e-05
3.9804e-05
3.7121e-05
3.43874e-05
3.16108e-05
2.8801e-05
2.59726e-05
2.31412e-05
2.03241e-05
1.75389e-05
1.48023e-05
1.21272e-05
9.53055e-06
7.01674e-06
4.60844e-06
2.30556e-06
1.30964e-07
-1.90723e-06
-3.79061e-06
-5.50317e-06
-7.02324e-06
-8.33385e-06
-9.40964e-06
-1.0234e-05
-1.07716e-05
-1.10137e-05
-1.09346e-05
-1.04948e-05
-9.72767e-06
-8.55088e-06
-7.00304e-06
-5.06505e-06
-3.02031e-06
-1.41429e-08
2.66862e-06
6.11339e-06
9.59251e-06
1.34428e-05
1.7488e-05
2.1677e-05
2.6003e-05
3.03894e-05
3.48018e-05
3.91903e-05
4.35246e-05
4.77609e-05
5.187e-05
5.58287e-05
5.96045e-05
6.3193e-05
6.65674e-05
6.97294e-05
7.26638e-05
7.53742e-05
7.78569e-05
8.01157e-05
8.21504e-05
8.39686e-05
8.55744e-05
8.69745e-05
8.81767e-05
8.91873e-05
9.00144e-05
9.0666e-05
9.11495e-05
9.14728e-05
9.16429e-05
9.16668e-05
9.15525e-05
9.13048e-05
9.09309e-05
9.04356e-05
8.98262e-05
8.91059e-05
8.82801e-05
8.73537e-05
8.63294e-05
8.52127e-05
8.40063e-05
8.27136e-05
8.13381e-05
7.9882e-05
7.83487e-05
7.67406e-05
7.50596e-05
7.33089e-05
7.14903e-05
6.96061e-05
6.76586e-05
6.56494e-05
6.35812e-05
6.14555e-05
5.92721e-05
5.70345e-05
5.47415e-05
5.23937e-05
4.99923e-05
4.75346e-05
4.50211e-05
4.24504e-05
3.98243e-05
3.71431e-05
3.44117e-05
3.16373e-05
2.88297e-05
2.60034e-05
2.31737e-05
2.03581e-05
1.75736e-05
1.48374e-05
1.2162e-05
9.56473e-06
7.04972e-06
4.63992e-06
2.33508e-06
1.58177e-07
-1.88265e-06
-3.76892e-06
-5.48453e-06
-7.00763e-06
-8.32128e-06
-9.39993e-06
-1.02272e-05
-1.07674e-05
-1.10118e-05
-1.09349e-05
-1.04967e-05
-9.73147e-06
-8.55635e-06
-7.01018e-06
-5.07103e-06
-3.03444e-06
-2.99364e-08
2.65049e-06
6.09233e-06
9.57033e-06
1.34186e-05
1.74631e-05
2.16525e-05
2.59791e-05
3.03667e-05
3.47802e-05
3.917e-05
4.35056e-05
4.77433e-05
5.18538e-05
5.58139e-05
5.95907e-05
6.31799e-05
6.65548e-05
6.9717e-05
7.26515e-05
7.5362e-05
7.78448e-05
8.01037e-05
8.21388e-05
8.39574e-05
8.55637e-05
8.69645e-05
8.81672e-05
8.91785e-05
9.00064e-05
9.06588e-05
9.1143e-05
9.14671e-05
9.1638e-05
9.16627e-05
9.15492e-05
9.13024e-05
9.09293e-05
9.04349e-05
8.98263e-05
8.91068e-05
8.82818e-05
8.73563e-05
8.63328e-05
8.52169e-05
8.40113e-05
8.27194e-05
8.13447e-05
7.98894e-05
7.83568e-05
7.67496e-05
7.50692e-05
7.33194e-05
7.15016e-05
6.9618e-05
6.76713e-05
6.56629e-05
6.35954e-05
6.14704e-05
5.92878e-05
5.70509e-05
5.47586e-05
5.24116e-05
5.0011e-05
4.75543e-05
4.50418e-05
4.24724e-05
3.98478e-05
3.71683e-05
3.44388e-05
3.16665e-05
2.8861e-05
2.60367e-05
2.32089e-05
2.03946e-05
1.76111e-05
1.48753e-05
1.21997e-05
9.60176e-06
7.08554e-06
4.67411e-06
2.36714e-06
1.87659e-07
-1.85615e-06
-3.74571e-06
-5.46484e-06
-6.99147e-06
-8.30869e-06
-9.39076e-06
-1.02214e-05
-1.07648e-05
-1.1012e-05
-1.09378e-05
-1.05017e-05
-9.73862e-06
-8.56561e-06
-7.02152e-06
-5.08136e-06
-3.05314e-06
-5.25956e-08
2.62613e-06
6.06428e-06
9.5412e-06
1.33873e-05
1.74309e-05
2.16209e-05
2.59484e-05
3.03375e-05
3.47525e-05
3.91442e-05
4.34815e-05
4.77214e-05
5.18339e-05
5.5796e-05
5.95744e-05
6.31651e-05
6.65409e-05
6.97038e-05
7.26389e-05
7.53499e-05
7.78332e-05
8.00927e-05
8.21284e-05
8.39478e-05
8.55548e-05
8.69564e-05
8.81599e-05
8.91721e-05
9.00009e-05
9.06541e-05
9.11393e-05
9.14643e-05
9.16361e-05
9.16617e-05
9.15491e-05
9.13031e-05
9.09309e-05
9.04373e-05
8.98296e-05
8.91109e-05
8.82868e-05
8.73621e-05
8.63395e-05
8.52244e-05
8.40197e-05
8.27286e-05
8.13546e-05
7.99002e-05
7.83684e-05
7.6762e-05
7.50824e-05
7.33334e-05
7.15163e-05
6.96336e-05
6.76876e-05
6.56799e-05
6.36132e-05
6.14889e-05
5.9307e-05
5.70707e-05
5.4779e-05
5.24327e-05
5.00327e-05
4.75767e-05
4.50651e-05
4.24967e-05
3.98732e-05
3.71953e-05
3.44674e-05
3.16969e-05
2.88934e-05
2.60711e-05
2.32451e-05
2.04322e-05
1.76497e-05
1.49143e-05
1.22386e-05
9.64001e-06
7.12253e-06
4.70932e-06
2.40002e-06
2.17682e-07
-1.82944e-06
-3.72269e-06
-5.44576e-06
-6.97642e-06
-8.29769e-06
-9.38367e-06
-1.02182e-05
-1.07653e-05
-1.10157e-05
-1.09447e-05
-1.05111e-05
-9.75039e-06
-8.57997e-06
-7.03839e-06
-5.09736e-06
-3.0773e-06
-8.30998e-08
2.59472e-06
6.0285e-06
9.50452e-06
1.33485e-05
1.73912e-05
2.15822e-05
2.5911e-05
3.03021e-05
3.47194e-05
3.91135e-05
4.34534e-05
4.76962e-05
5.18116e-05
5.57763e-05
5.95572e-05
6.31498e-05
6.65272e-05
6.96914e-05
7.26275e-05
7.53394e-05
7.78236e-05
8.00839e-05
8.21206e-05
8.39409e-05
8.55489e-05
8.69515e-05
8.8156e-05
8.91691e-05
8.99989e-05
9.06531e-05
9.11392e-05
9.14651e-05
9.16378e-05
9.16643e-05
9.15526e-05
9.13075e-05
9.09362e-05
9.04435e-05
8.98366e-05
8.91188e-05
8.82956e-05
8.73716e-05
8.63498e-05
8.52356e-05
8.40317e-05
8.27414e-05
8.13683e-05
7.99146e-05
7.83836e-05
7.6778e-05
7.50992e-05
7.33509e-05
7.15347e-05
6.96527e-05
6.77075e-05
6.57005e-05
6.36344e-05
6.15107e-05
5.93294e-05
5.70936e-05
5.48024e-05
5.24565e-05
5.00569e-05
4.76013e-05
4.50902e-05
4.25225e-05
3.98998e-05
3.72229e-05
3.44964e-05
3.17277e-05
2.8926e-05
2.61055e-05
2.32813e-05
2.047e-05
1.76884e-05
1.49536e-05
1.22778e-05
9.67852e-06
7.15973e-06
4.74457e-06
2.43277e-06
2.47278e-07
-1.8035e-06
-3.70083e-06
-5.42828e-06
-6.96343e-06
-8.28922e-06
-9.37964e-06
-1.02185e-05
-1.07699e-05
-1.10239e-05
-1.09565e-05
-1.05259e-05
-9.76781e-06
-8.60042e-06
-7.06179e-06
-5.1201e-06
-3.10772e-06
-1.21908e-07
2.55592e-06
5.98482e-06
9.46017e-06
1.33022e-05
1.73442e-05
2.15368e-05
2.58675e-05
3.02614e-05
3.46817e-05
3.90792e-05
4.34225e-05
4.76689e-05
5.1788e-05
5.57562e-05
5.95403e-05
6.31354e-05
6.65151e-05
6.96809e-05
7.26186e-05
7.53317e-05
7.7817e-05
8.00785e-05
8.21164e-05
8.39378e-05
8.55469e-05
8.69506e-05
8.81561e-05
8.91703e-05
9.0001e-05
9.06562e-05
9.11433e-05
9.14701e-05
9.16437e-05
9.16712e-05
9.15603e-05
9.13161e-05
9.09456e-05
9.04538e-05
8.98476e-05
8.91306e-05
8.83082e-05
8.7385e-05
8.63641e-05
8.52506e-05
8.40475e-05
8.2758e-05
8.13856e-05
7.99327e-05
7.84025e-05
7.67976e-05
7.51197e-05
7.33721e-05
7.15565e-05
6.96752e-05
6.77307e-05
6.57244e-05
6.36588e-05
6.15355e-05
5.93547e-05
5.71192e-05
5.48283e-05
5.24825e-05
5.00829e-05
4.76274e-05
4.51164e-05
4.25489e-05
3.99268e-05
3.72507e-05
3.45253e-05
3.1758e-05
2.89581e-05
2.61395e-05
2.33171e-05
2.05074e-05
1.7727e-05
1.49927e-05
1.23169e-05
9.71689e-06
7.19676e-06
4.77946e-06
2.46495e-06
2.76024e-07
-1.77875e-06
-3.68058e-06
-5.41284e-06
-6.95299e-06
-8.28381e-06
-9.37919e-06
-1.02229e-05
-1.0779e-05
-1.10373e-05
-1.09738e-05
-1.05469e-05
-9.79155e-06
-8.62765e-06
-7.09239e-06
-5.15028e-06
-3.14492e-06
-1.6895e-07
2.50984e-06
5.93355e-06
9.40861e-06
1.32492e-05
1.72907e-05
2.14857e-05
2.58189e-05
3.02164e-05
3.46405e-05
3.90423e-05
4.33898e-05
4.76408e-05
5.17644e-05
5.57367e-05
5.95247e-05
6.3123e-05
6.65054e-05
6.96733e-05
7.26129e-05
7.53276e-05
7.78144e-05
8.00772e-05
8.21164e-05
8.39391e-05
8.55494e-05
8.69542e-05
8.81608e-05
8.91761e-05
9.00078e-05
9.0664e-05
9.1152e-05
9.14797e-05
9.16542e-05
9.16825e-05
9.15724e-05
9.1329e-05
9.09593e-05
9.04683e-05
8.98629e-05
8.91466e-05
8.8325e-05
8.74025e-05
8.63824e-05
8.52696e-05
8.40673e-05
8.27785e-05
8.14068e-05
7.99547e-05
7.84252e-05
7.6821e-05
7.51437e-05
7.33968e-05
7.15819e-05
6.97012e-05
6.77572e-05
6.57514e-05
6.36863e-05
6.15632e-05
5.93827e-05
5.71472e-05
5.48562e-05
5.25103e-05
5.01104e-05
4.76546e-05
4.51433e-05
4.25758e-05
3.99537e-05
3.72782e-05
3.45538e-05
3.17879e-05
2.89897e-05
2.61731e-05
2.33526e-05
2.05446e-05
1.77655e-05
1.50318e-05
1.2356e-05
9.75522e-06
7.23368e-06
4.81405e-06
2.49661e-06
3.03927e-07
-1.75523e-06
-3.66198e-06
-5.39954e-06
-6.94522e-06
-8.28162e-06
-9.38254e-06
-1.02316e-05
-1.07931e-05
-1.10562e-05
-1.09971e-05
-1.05743e-05
-9.82193e-06
-8.66191e-06
-7.13039e-06
-5.18808e-06
-3.18896e-06
-2.2378e-07
2.45689e-06
5.87527e-06
9.35045e-06
1.31899e-05
1.72316e-05
2.14295e-05
2.57661e-05
3.0168e-05
3.45968e-05
3.90037e-05
4.33563e-05
4.76126e-05
5.17414e-05
5.57187e-05
5.95111e-05
6.31132e-05
6.64987e-05
6.96692e-05
7.2611e-05
7.53275e-05
7.7816e-05
8.00803e-05
8.2121e-05
8.39451e-05
8.55567e-05
8.69628e-05
8.81705e-05
8.91868e-05
9.00196e-05
9.06767e-05
9.11656e-05
9.14942e-05
9.16695e-05
9.16986e-05
9.15892e-05
9.13465e-05
9.09775e-05
9.04873e-05
8.98826e-05
8.9167e-05
8.83461e-05
8.74242e-05
8.64048e-05
8.52927e-05
8.40911e-05
8.28029e-05
8.1432e-05
7.99805e-05
7.84517e-05
7.68481e-05
7.51715e-05
7.34251e-05
7.16108e-05
6.97306e-05
6.7787e-05
6.57815e-05
6.37166e-05
6.15936e-05
5.9413e-05
5.71773e-05
5.48859e-05
5.25396e-05
5.01391e-05
4.76826e-05
4.51707e-05
4.26028e-05
3.99807e-05
3.73055e-05
3.4582e-05
3.18175e-05
2.90211e-05
2.62066e-05
2.33882e-05
2.05821e-05
1.78043e-05
1.50714e-05
1.23955e-05
9.79392e-06
7.27088e-06
4.84868e-06
2.52806e-06
3.31256e-07
-1.73269e-06
-3.64486e-06
-5.38823e-06
-6.94002e-06
-8.28257e-06
-9.38963e-06
-1.02446e-05
-1.08121e-05
-1.10805e-05
-1.10262e-05
-1.0608e-05
-9.85887e-06
-8.70306e-06
-7.17558e-06
-5.23331e-06
-3.23957e-06
-2.85857e-07
2.39753e-06
5.81051e-06
9.28622e-06
1.31251e-05
1.71673e-05
2.1369e-05
2.57096e-05
3.01167e-05
3.4551e-05
3.89638e-05
4.33222e-05
4.75846e-05
5.17195e-05
5.57023e-05
5.94999e-05
6.31062e-05
6.64954e-05
6.96688e-05
7.26132e-05
7.53318e-05
7.78221e-05
8.00882e-05
8.21306e-05
8.39561e-05
8.55691e-05
8.69765e-05
8.81853e-05
8.92027e-05
9.00365e-05
9.06945e-05
9.11842e-05
9.15137e-05
9.16897e-05
9.17196e-05
9.16108e-05
9.13689e-05
9.10005e-05
9.05109e-05
8.99068e-05
8.91918e-05
8.83715e-05
8.74503e-05
8.64315e-05
8.53201e-05
8.4119e-05
8.28315e-05
8.14611e-05
8.00102e-05
7.8482e-05
7.68789e-05
7.52029e-05
7.3457e-05
7.16431e-05
6.97632e-05
6.78199e-05
6.58146e-05
6.37497e-05
6.16265e-05
5.94457e-05
5.72094e-05
5.49174e-05
5.25703e-05
5.01689e-05
4.77115e-05
4.51989e-05
4.26304e-05
4.00081e-05
3.73333e-05
3.46106e-05
3.18476e-05
2.90532e-05
2.62408e-05
2.34247e-05
2.06205e-05
1.78442e-05
1.51119e-05
1.24361e-05
9.83349e-06
7.30879e-06
4.88377e-06
2.55965e-06
3.5834e-07
-1.71085e-06
-3.62893e-06
-5.37867e-06
-6.93716e-06
-8.28645e-06
-9.40025e-06
-1.02618e-05
-1.08358e-05
-1.111e-05
-1.10609e-05
-1.06478e-05
-9.9021e-06
-8.75081e-06
-7.22763e-06
-5.28561e-06
-3.29637e-06
-3.54799e-07
2.332e-06
5.73961e-06
9.21621e-06
1.3055e-05
1.70982e-05
2.13043e-05
2.56496e-05
3.00628e-05
3.45033e-05
3.89228e-05
4.32879e-05
4.75572e-05
5.16988e-05
5.56879e-05
5.94912e-05
6.31023e-05
6.64957e-05
6.96724e-05
7.26196e-05
7.53406e-05
7.78331e-05
8.0101e-05
8.21452e-05
8.39723e-05
8.55867e-05
8.69955e-05
8.82054e-05
8.92239e-05
9.00587e-05
9.07176e-05
9.12082e-05
9.15383e-05
9.17151e-05
9.17457e-05
9.16375e-05
9.13961e-05
9.10283e-05
9.05393e-05
8.99357e-05
8.92213e-05
8.84016e-05
8.74808e-05
8.64627e-05
8.53517e-05
8.41512e-05
8.28642e-05
8.14944e-05
8.0044e-05
7.85162e-05
7.69136e-05
7.5238e-05
7.34925e-05
7.16788e-05
6.97992e-05
6.7856e-05
6.58506e-05
6.37855e-05
6.1662e-05
5.94806e-05
5.72436e-05
5.49508e-05
5.26027e-05
5.02001e-05
4.77417e-05
4.52281e-05
4.2659e-05
4.00364e-05
3.7362e-05
3.46403e-05
3.18788e-05
2.90864e-05
2.62764e-05
2.34625e-05
2.06604e-05
1.78855e-05
1.5154e-05
1.2478e-05
9.87431e-06
7.34776e-06
4.91962e-06
2.59167e-06
3.85423e-07
-1.68948e-06
-3.61401e-06
-5.37066e-06
-6.93645e-06
-8.29307e-06
-9.41423e-06
-1.02828e-05
-1.08639e-05
-1.11444e-05
-1.11011e-05
-1.06935e-05
-9.95137e-06
-8.80485e-06
-7.28619e-06
-5.34466e-06
-3.35911e-06
-4.30497e-07
2.26035e-06
5.66263e-06
9.14044e-06
1.29795e-05
1.70242e-05
2.12354e-05
2.55862e-05
3.0006e-05
3.44536e-05
3.88807e-05
4.32532e-05
4.75302e-05
5.16793e-05
5.56753e-05
5.94851e-05
6.31015e-05
6.64995e-05
6.96799e-05
7.26304e-05
7.5354e-05
7.78489e-05
8.01189e-05
8.21651e-05
8.39939e-05
8.56098e-05
8.702e-05
8.82311e-05
8.92507e-05
9.00864e-05
9.07462e-05
9.12375e-05
9.15684e-05
9.17458e-05
9.17769e-05
9.16693e-05
9.14284e-05
9.10611e-05
9.05727e-05
8.99695e-05
8.92555e-05
8.84362e-05
8.7516e-05
8.64983e-05
8.53878e-05
8.41877e-05
8.29012e-05
8.15318e-05
8.00818e-05
7.85544e-05
7.69521e-05
7.52768e-05
7.35316e-05
7.17181e-05
6.98386e-05
6.78953e-05
6.58897e-05
6.38243e-05
6.17001e-05
5.95181e-05
5.72801e-05
5.49862e-05
5.2637e-05
5.02331e-05
4.77736e-05
4.5259e-05
4.26893e-05
4.00664e-05
3.73924e-05
3.46717e-05
3.19118e-05
2.91215e-05
2.63139e-05
2.35023e-05
2.07022e-05
1.79288e-05
1.51978e-05
1.25216e-05
9.91658e-06
7.38795e-06
4.95638e-06
2.62424e-06
4.1264e-07
-1.66846e-06
-3.59995e-06
-5.36409e-06
-6.93777e-06
-8.30231e-06
-9.43143e-06
-1.03076e-05
-1.08964e-05
-1.11838e-05
-1.11465e-05
-1.07448e-05
-1.00066e-05
-8.86507e-06
-7.35112e-06
-5.41035e-06
-3.42778e-06
-5.13031e-07
2.18235e-06
5.57937e-06
9.05868e-06
1.28984e-05
1.69451e-05
2.1162e-05
2.5519e-05
2.99464e-05
3.44018e-05
3.88372e-05
4.32181e-05
4.75036e-05
5.1661e-05
5.56646e-05
5.94816e-05
6.31038e-05
6.6507e-05
6.96915e-05
7.26456e-05
7.53722e-05
7.78697e-05
8.0142e-05
8.21903e-05
8.4021e-05
8.56385e-05
8.70501e-05
8.82625e-05
8.92832e-05
9.01198e-05
9.07804e-05
9.12725e-05
9.16039e-05
9.17819e-05
9.18136e-05
9.17063e-05
9.14659e-05
9.1099e-05
9.0611e-05
9.00082e-05
8.92946e-05
8.84757e-05
8.75558e-05
8.65385e-05
8.54283e-05
8.42286e-05
8.29425e-05
8.15734e-05
8.01238e-05
7.85967e-05
7.69946e-05
7.53196e-05
7.35744e-05
7.1761e-05
6.98814e-05
6.79379e-05
6.5932e-05
6.3866e-05
6.17412e-05
5.95583e-05
5.73193e-05
5.50242e-05
5.26736e-05
5.02684e-05
4.78077e-05
4.5292e-05
4.27216e-05
4.00986e-05
3.74249e-05
3.47052e-05
3.19469e-05
2.91588e-05
2.63535e-05
2.35442e-05
2.07461e-05
1.7974e-05
1.52435e-05
1.2567e-05
9.96039e-06
7.42943e-06
4.99411e-06
2.65742e-06
4.40038e-07
-1.64773e-06
-3.58673e-06
-5.35892e-06
-6.94108e-06
-8.31416e-06
-9.45185e-06
-1.03363e-05
-1.09332e-05
-1.1228e-05
-1.11973e-05
-1.08019e-05
-1.00677e-05
-8.93153e-06
-7.42251e-06
-5.48281e-06
-3.5026e-06
-6.02674e-07
2.09763e-06
5.48953e-06
8.97057e-06
1.28114e-05
1.68605e-05
2.10838e-05
2.54477e-05
2.98834e-05
3.43476e-05
3.87922e-05
4.31823e-05
4.74771e-05
5.16437e-05
5.56557e-05
5.94805e-05
6.31092e-05
6.65181e-05
6.97072e-05
7.26653e-05
7.53953e-05
7.78956e-05
8.01705e-05
8.2221e-05
8.40537e-05
8.56729e-05
8.7086e-05
8.82996e-05
8.93214e-05
9.0159e-05
9.08204e-05
9.13131e-05
9.16452e-05
9.18236e-05
9.18557e-05
9.17488e-05
9.15088e-05
9.11422e-05
9.06545e-05
9.00519e-05
8.93386e-05
8.852e-05
8.76003e-05
8.65834e-05
8.54735e-05
8.42741e-05
8.29882e-05
8.16194e-05
8.017e-05
7.86432e-05
7.70412e-05
7.53663e-05
7.36211e-05
7.18076e-05
6.99279e-05
6.79841e-05
6.59778e-05
6.39111e-05
6.17854e-05
5.96016e-05
5.73613e-05
5.50649e-05
5.2713e-05
5.03063e-05
4.78443e-05
4.53275e-05
4.27564e-05
4.01331e-05
3.74598e-05
3.47412e-05
3.19845e-05
2.91984e-05
2.63954e-05
2.35884e-05
2.07921e-05
1.80213e-05
1.52912e-05
1.2614e-05
1.00057e-05
7.47219e-06
5.03281e-06
2.69121e-06
4.67603e-07
-1.62733e-06
-3.57437e-06
-5.35519e-06
-6.94646e-06
-8.3287e-06
-9.47559e-06
-1.03688e-05
-1.09746e-05
-1.12773e-05
-1.12536e-05
-1.0865e-05
-1.01352e-05
-9.00452e-06
-7.50062e-06
-5.56233e-06
-3.58397e-06
-6.99826e-07
2.00566e-06
5.3926e-06
8.87561e-06
1.27179e-05
1.677e-05
2.10003e-05
2.53719e-05
2.98168e-05
3.42906e-05
3.87453e-05
4.31455e-05
4.74506e-05
5.16272e-05
5.56485e-05
5.94818e-05
6.31177e-05
6.65329e-05
6.97271e-05
7.26896e-05
7.54232e-05
7.79268e-05
8.02043e-05
8.22573e-05
8.40921e-05
8.57132e-05
8.71279e-05
8.83428e-05
8.93657e-05
9.02042e-05
9.08663e-05
9.13596e-05
9.16922e-05
9.1871e-05
9.19035e-05
9.17969e-05
9.15571e-05
9.11907e-05
9.07032e-05
9.01008e-05
8.93877e-05
8.85693e-05
8.76498e-05
8.66331e-05
8.55235e-05
8.43242e-05
8.30386e-05
8.16699e-05
8.02207e-05
7.86939e-05
7.70921e-05
7.54171e-05
7.36719e-05
7.18582e-05
6.99782e-05
6.8034e-05
6.60271e-05
6.39597e-05
6.1833e-05
5.96481e-05
5.74066e-05
5.51087e-05
5.27554e-05
5.03471e-05
4.78837e-05
4.53658e-05
4.27939e-05
4.01703e-05
3.74973e-05
3.47796e-05
3.20245e-05
2.92404e-05
2.64396e-05
2.36348e-05
2.08403e-05
1.80706e-05
1.53407e-05
1.26628e-05
1.00526e-05
7.5162e-06
5.07244e-06
2.72554e-06
4.95273e-07
-1.60733e-06
-3.56297e-06
-5.35303e-06
-6.95405e-06
-8.34609e-06
-9.50284e-06
-1.04055e-05
-1.10208e-05
-1.1332e-05
-1.13158e-05
-1.09344e-05
-1.02092e-05
-9.08443e-06
-7.58586e-06
-5.64937e-06
-3.67241e-06
-8.05014e-07
1.90585e-06
5.28801e-06
8.7732e-06
1.26173e-05
1.6673e-05
2.0911e-05
2.5291e-05
2.9746e-05
3.42303e-05
3.86962e-05
4.31075e-05
4.74238e-05
5.16114e-05
5.56428e-05
5.94855e-05
6.31292e-05
6.65514e-05
6.97511e-05
7.27185e-05
7.54561e-05
7.79632e-05
8.02438e-05
8.22995e-05
8.41366e-05
8.57596e-05
8.71759e-05
8.83921e-05
8.94161e-05
9.02555e-05
9.09184e-05
9.14123e-05
9.17452e-05
9.19244e-05
9.19572e-05
9.18507e-05
9.16111e-05
9.12448e-05
9.07574e-05
9.01551e-05
8.94421e-05
8.86238e-05
8.77044e-05
8.66878e-05
8.55783e-05
8.43792e-05
8.30936e-05
8.1725e-05
8.02759e-05
7.87492e-05
7.71473e-05
7.54723e-05
7.37269e-05
7.1913e-05
7.00326e-05
6.80878e-05
6.60803e-05
6.4012e-05
6.18842e-05
5.96981e-05
5.74552e-05
5.51558e-05
5.28008e-05
5.0391e-05
4.7926e-05
4.54069e-05
4.28342e-05
4.02102e-05
3.75374e-05
3.48207e-05
3.2067e-05
2.92849e-05
2.64862e-05
2.36835e-05
2.08906e-05
1.81219e-05
1.53921e-05
1.27133e-05
1.01009e-05
7.56138e-06
5.11291e-06
2.76032e-06
5.22941e-07
-1.58784e-06
-3.55267e-06
-5.3526e-06
-6.96403e-06
-8.36657e-06
-9.53388e-06
-1.04467e-05
-1.1072e-05
-1.13924e-05
-1.13843e-05
-1.10106e-05
-1.02904e-05
-9.17177e-06
-7.67876e-06
-5.74451e-06
-3.76854e-06
-9.1886e-07
1.79753e-06
5.17508e-06
8.6627e-06
1.2509e-05
1.65688e-05
2.08152e-05
2.52046e-05
2.96706e-05
3.41665e-05
3.86445e-05
4.30679e-05
4.73965e-05
5.15961e-05
5.56385e-05
5.94915e-05
6.31438e-05
6.65736e-05
6.97795e-05
7.27522e-05
7.54943e-05
7.80052e-05
8.02891e-05
8.23477e-05
8.41872e-05
8.58123e-05
8.72302e-05
8.84479e-05
8.9473e-05
9.03132e-05
9.09768e-05
9.14712e-05
9.18045e-05
9.19839e-05
9.20169e-05
9.19105e-05
9.16709e-05
9.13047e-05
9.08173e-05
9.02149e-05
8.9502e-05
8.86837e-05
8.77642e-05
8.67477e-05
8.56382e-05
8.44391e-05
8.31536e-05
8.1785e-05
8.03358e-05
7.8809e-05
7.7207e-05
7.55318e-05
7.37862e-05
7.19719e-05
7.0091e-05
6.81457e-05
6.61373e-05
6.4068e-05
6.19391e-05
5.97516e-05
5.75072e-05
5.52062e-05
5.28495e-05
5.04379e-05
4.79714e-05
4.5451e-05
4.28774e-05
4.02529e-05
3.75803e-05
3.48644e-05
3.21121e-05
2.93319e-05
2.65352e-05
2.37344e-05
2.09431e-05
1.81752e-05
1.54453e-05
1.27654e-05
1.01505e-05
7.60761e-06
5.15411e-06
2.79543e-06
5.50456e-07
-1.56905e-06
-3.54367e-06
-5.35413e-06
-6.97667e-06
-8.39043e-06
-9.56904e-06
-1.04927e-05
-1.11289e-05
-1.14591e-05
-1.14595e-05
-1.1094e-05
-1.03793e-05
-9.26715e-06
-7.77991e-06
-5.84839e-06
-3.87305e-06
-1.04209e-06
1.67998e-06
5.05311e-06
8.5434e-06
1.23923e-05
1.64569e-05
2.07124e-05
2.51121e-05
2.95901e-05
3.40986e-05
3.85899e-05
4.30266e-05
4.73685e-05
5.15812e-05
5.56356e-05
5.94999e-05
6.31616e-05
6.65996e-05
6.98124e-05
7.27909e-05
7.55379e-05
7.8053e-05
8.03404e-05
8.24022e-05
8.42443e-05
8.58716e-05
8.72913e-05
8.85104e-05
8.95366e-05
9.03777e-05
9.10419e-05
9.15367e-05
9.18703e-05
9.20499e-05
9.20829e-05
9.19765e-05
9.17368e-05
9.13705e-05
9.08831e-05
9.02805e-05
8.95675e-05
8.8749e-05
8.78295e-05
8.68129e-05
8.57033e-05
8.45041e-05
8.32185e-05
8.18498e-05
8.04006e-05
7.88736e-05
7.72714e-05
7.5596e-05
7.385e-05
7.20352e-05
7.01537e-05
6.82076e-05
6.61983e-05
6.41279e-05
6.19977e-05
5.98088e-05
5.75627e-05
5.52599e-05
5.29014e-05
5.0488e-05
4.80199e-05
4.5498e-05
4.29234e-05
4.02985e-05
3.76259e-05
3.49107e-05
3.21597e-05
2.93812e-05
2.65865e-05
2.37874e-05
2.09975e-05
1.82303e-05
1.55001e-05
1.28189e-05
1.02013e-05
7.65475e-06
5.19586e-06
2.83068e-06
5.77628e-07
-1.55117e-06
-3.5362e-06
-5.35789e-06
-6.99228e-06
-8.41802e-06
-9.6087e-06
-1.0544e-05
-1.11917e-05
-1.15324e-05
-1.15421e-05
-1.11854e-05
-1.04766e-05
-9.37122e-06
-7.89001e-06
-5.96172e-06
-3.98663e-06
-1.1755e-06
1.55245e-06
4.92133e-06
8.41457e-06
1.22664e-05
1.63365e-05
2.0602e-05
2.50129e-05
2.9504e-05
3.40264e-05
3.85321e-05
4.29833e-05
4.73398e-05
5.15667e-05
5.56342e-05
5.95106e-05
6.31826e-05
6.66297e-05
6.98499e-05
7.28349e-05
7.55872e-05
7.81069e-05
8.03983e-05
8.24634e-05
8.43083e-05
8.59379e-05
8.73595e-05
8.858e-05
8.96074e-05
9.04493e-05
9.1114e-05
9.16092e-05
9.1943e-05
9.21226e-05
9.21556e-05
9.2049e-05
9.18092e-05
9.14426e-05
9.0955e-05
9.03522e-05
8.96389e-05
8.88202e-05
8.79004e-05
8.68836e-05
8.57738e-05
8.45745e-05
8.32887e-05
8.19198e-05
8.04703e-05
7.89431e-05
7.73405e-05
7.56647e-05
7.39182e-05
7.21029e-05
7.02207e-05
6.82737e-05
6.62634e-05
6.41917e-05
6.20601e-05
5.98696e-05
5.76217e-05
5.53171e-05
5.29567e-05
5.05413e-05
4.80714e-05
4.55481e-05
4.29724e-05
4.03468e-05
3.76743e-05
3.49597e-05
3.22098e-05
2.94329e-05
2.66399e-05
2.38425e-05
2.10538e-05
1.82872e-05
1.55564e-05
1.28736e-05
1.02532e-05
7.70261e-06
5.23798e-06
2.86585e-06
6.04219e-07
-1.53444e-06
-3.53056e-06
-5.3642e-06
-7.01121e-06
-8.44973e-06
-9.6533e-06
-1.06011e-05
-1.12611e-05
-1.16131e-05
-1.16327e-05
-1.12853e-05
-1.05829e-05
-9.48471e-06
-8.00979e-06
-6.08529e-06
-4.11005e-06
-1.31997e-06
1.41415e-06
4.77891e-06
8.27544e-06
1.21307e-05
1.6207e-05
2.04833e-05
2.49065e-05
2.94119e-05
3.39493e-05
3.84707e-05
4.29378e-05
4.73101e-05
5.15525e-05
5.56344e-05
5.9524e-05
6.32073e-05
6.66642e-05
6.98926e-05
7.28846e-05
7.56427e-05
7.81674e-05
8.0463e-05
8.25318e-05
8.43797e-05
8.60117e-05
8.74353e-05
8.86573e-05
8.96858e-05
9.05285e-05
9.11937e-05
9.16892e-05
9.2023e-05
9.22025e-05
9.22353e-05
9.21284e-05
9.18883e-05
9.15213e-05
9.10333e-05
9.04301e-05