/*--------------------------------*- C++ -*----------------------------------*\
| =========                 |                                                 |
| \\      /  F ield         | OpenFOAM: The Open Source CFD Toolbox           |
|  \\    /   O peration     | Version:  2.3.1                                 |
|   \\  /    A nd           | Web:      www.OpenFOAM.org                      |
|    \\/     M anipulation  |                                                 |
\*---------------------------------------------------------------------------*/
FoamFile
{
    version     2.0;
    format      ascii;
    class       surfaceScalarField;
    location    "10000";
    object      phi;
}
// * * * * * * * * * * * * * * * * * * * * * * * * * * * * * * * * * * * * * //

dimensions      [0 3 -1 0 0 0 0];

internalField   nonuniform List<scalar> 
29254
(
-6.49014e-07
5.95452e-09
-6.57905e-07
8.89148e-09
-6.63482e-07
5.5764e-09
-6.68386e-07
4.9044e-09
-6.71488e-07
3.10168e-09
-6.72687e-07
1.19942e-09
-6.72586e-07
-1.00743e-10
-6.70887e-07
-1.69913e-09
-6.67837e-07
-3.05016e-09
-6.63573e-07
-4.26389e-09
-6.58272e-07
-5.30066e-09
-6.51958e-07
-6.31462e-09
-6.44898e-07
-7.05959e-09
-6.37306e-07
-7.59191e-09
-6.29263e-07
-8.043e-09
-6.21014e-07
-8.24968e-09
-6.12563e-07
-8.45074e-09
-6.041e-07
-8.46242e-09
-5.95669e-07
-8.43189e-09
-5.87444e-07
-8.2242e-09
-5.79429e-07
-8.01494e-09
-5.71682e-07
-7.74717e-09
-5.6424e-07
-7.4424e-09
-5.57208e-07
-7.03233e-09
-5.50555e-07
-6.65212e-09
-5.44258e-07
-6.29746e-09
-5.38349e-07
-5.9086e-09
-5.32793e-07
-5.55607e-09
-5.27631e-07
-5.16213e-09
-5.22864e-07
-4.76686e-09
-5.18481e-07
-4.38298e-09
-5.14472e-07
-4.00908e-09
-5.1082e-07
-3.65213e-09
-5.07512e-07
-3.30823e-09
-5.04532e-07
-2.97963e-09
-5.0182e-07
-2.71245e-09
-4.99396e-07
-2.42391e-09
-4.97244e-07
-2.15212e-09
-4.95349e-07
-1.89448e-09
-4.93635e-07
-1.71398e-09
-4.92129e-07
-1.50659e-09
-4.90858e-07
-1.27109e-09
-4.89781e-07
-1.07708e-09
-4.88932e-07
-8.48258e-10
-4.88248e-07
-6.84655e-10
-4.87705e-07
-5.42162e-10
-4.87296e-07
-4.09871e-10
-4.87e-07
-2.95513e-10
-4.86809e-07
-1.91289e-10
-4.86704e-07
-1.04779e-10
-4.8667e-07
-3.42957e-11
-4.86713e-07
4.36336e-11
-4.86796e-07
8.31462e-11
-4.869e-07
1.03363e-10
-4.87004e-07
1.0433e-10
-4.87082e-07
7.81881e-11
-4.87106e-07
2.37149e-11
-4.87023e-07
-8.33141e-11
-4.86773e-07
-2.49303e-10
-4.8635e-07
-4.23133e-10
-4.85627e-07
-7.23065e-10
-4.84542e-07
-1.08562e-09
-4.82966e-07
-1.57504e-09
-4.80757e-07
-2.20928e-09
-4.77889e-07
-2.86861e-09
-4.74312e-07
-3.57641e-09
-4.70022e-07
-4.29061e-09
-4.65029e-07
-4.99226e-09
-4.59486e-07
-5.54289e-09
-4.53594e-07
-5.89256e-09
-4.47609e-07
-5.98478e-09
-4.41844e-07
-5.76517e-09
-4.36607e-07
-5.23662e-09
-4.32192e-07
-4.41526e-09
-4.28839e-07
-3.35249e-09
-4.26719e-07
-2.12066e-09
-4.25923e-07
-7.95999e-10
-4.26508e-07
5.85531e-10
-4.28443e-07
1.93493e-09
-4.31762e-07
3.31862e-09
-4.36336e-07
4.57371e-09
-4.42194e-07
5.85789e-09
-4.49224e-07
7.03038e-09
-4.57375e-07
8.15061e-09
-4.66586e-07
9.2113e-09
-4.76789e-07
1.02033e-08
-4.87878e-07
1.10884e-08
-4.99763e-07
1.18855e-08
-5.12332e-07
1.25685e-08
-5.25493e-07
1.31618e-08
-5.39025e-07
1.35321e-08
-5.52921e-07
1.38954e-08
-5.66969e-07
1.40482e-08
-5.80753e-07
1.37836e-08
-5.94509e-07
1.37559e-08
-6.07419e-07
1.29098e-08
-6.19291e-07
1.18723e-08
-6.30261e-07
1.09694e-08
1.27406e-08
-2.00963e-06
2.30495e-08
-2.03437e-06
3.36344e-08
-2.0553e-06
2.64998e-08
-2.07642e-06
2.60333e-08
-2.09483e-06
2.15092e-08
-2.10873e-06
1.50923e-08
-2.1196e-06
1.07715e-08
-2.12643e-06
5.13401e-09
-2.12957e-06
9.34747e-11
-2.12932e-06
-4.52107e-09
-2.12602e-06
-8.59528e-09
-2.11977e-06
-1.25687e-08
-2.11112e-06
-1.57047e-08
-2.10055e-06
-1.81651e-08
-2.08828e-06
-2.03112e-08
-2.07492e-06
-2.16088e-08
-2.0605e-06
-2.28685e-08
-2.04554e-06
-2.34259e-08
-2.03019e-06
-2.37855e-08
-2.01488e-06
-2.35279e-08
-1.99971e-06
-2.31874e-08
-1.98483e-06
-2.26254e-08
-1.97038e-06
-2.18965e-08
-1.9566e-06
-2.08146e-08
-1.94348e-06
-1.97686e-08
-1.93106e-06
-1.87205e-08
-1.9194e-06
-1.75701e-08
-1.90846e-06
-1.64878e-08
-1.89835e-06
-1.52718e-08
-1.8891e-06
-1.40253e-08
-1.88068e-06
-1.2801e-08
-1.87309e-06
-1.15946e-08
-1.86631e-06
-1.04315e-08
-1.86032e-06
-9.30519e-09
-1.85507e-06
-8.22894e-09
-1.85044e-06
-7.33852e-09
-1.84648e-06
-6.38717e-09
-1.84315e-06
-5.48369e-09
-1.84041e-06
-4.63509e-09
-1.83811e-06
-4.0131e-09
-1.8363e-06
-3.31747e-09
-1.83498e-06
-2.58295e-09
-1.8341e-06
-1.95613e-09
-1.83371e-06
-1.23895e-09
-1.83367e-06
-7.24594e-10
-1.83392e-06
-2.97147e-10
-1.83442e-06
8.99066e-11
-1.83511e-06
3.99854e-10
-1.83597e-06
6.65168e-10
-1.83693e-06
8.53621e-10
-1.83793e-06
9.69661e-10
-1.83898e-06
1.08811e-09
-1.83995e-06
1.05587e-09
-1.84077e-06
9.27857e-10
-1.84138e-06
7.05889e-10
-1.84165e-06
3.50551e-10
-1.84148e-06
-1.44677e-10
-1.84068e-06
-8.84363e-10
-1.83903e-06
-1.89809e-09
-1.8364e-06
-3.0493e-09
-1.83242e-06
-4.70383e-09
-1.82679e-06
-6.72145e-09
-1.81913e-06
-9.23131e-09
-1.80901e-06
-1.23341e-08
-1.79622e-06
-1.56533e-08
-1.7806e-06
-1.91995e-08
-1.76209e-06
-2.27951e-08
-1.74079e-06
-2.62942e-08
-1.71716e-06
-2.9174e-08
-1.69189e-06
-3.11605e-08
-1.66588e-06
-3.19983e-08
-1.6402e-06
-3.14482e-08
-1.61592e-06
-2.95091e-08
-1.59409e-06
-2.62513e-08
-1.57554e-06
-2.19016e-08
-1.56087e-06
-1.67898e-08
-1.5504e-06
-1.12675e-08
-1.54429e-06
-5.52357e-09
-1.54242e-06
6.86578e-11
-1.54481e-06
5.70115e-09
-1.551e-06
1.07695e-08
-1.56096e-06
1.58186e-08
-1.5743e-06
2.03645e-08
-1.59075e-06
2.46039e-08
-1.61005e-06
2.85092e-08
-1.63188e-06
3.2038e-08
-1.65586e-06
3.50691e-08
-1.68169e-06
3.77152e-08
-1.70898e-06
3.98522e-08
-1.73741e-06
4.15962e-08
-1.76635e-06
4.24711e-08
-1.7957e-06
4.32488e-08
-1.82511e-06
4.34518e-08
-1.85374e-06
4.24175e-08
-1.88231e-06
4.23299e-08
-1.90916e-06
3.97556e-08
-1.93508e-06
3.77909e-08
-1.96142e-06
3.73062e-08
4.38606e-08
-3.4849e-06
4.81231e-08
-3.52521e-06
7.39431e-08
-3.5656e-06
6.68907e-08
-3.61037e-06
7.08058e-08
-3.654e-06
6.51388e-08
-3.69195e-06
5.30409e-08
-3.72631e-06
4.51329e-08
-3.75514e-06
3.39594e-08
-3.77856e-06
2.35147e-08
-3.79685e-06
1.37724e-08
-3.81045e-06
5.00011e-09
-3.81936e-06
-3.65838e-09
-3.82431e-06
-1.075e-08
-3.82591e-06
-1.65713e-08
-3.82442e-06
-2.18002e-08
-3.82073e-06
-2.5297e-08
-3.81481e-06
-2.87871e-08
-3.80746e-06
-3.0776e-08
-3.79891e-06
-3.23364e-08
-3.7898e-06
-3.26367e-08
-3.78029e-06
-3.26994e-08
-3.77062e-06
-3.22996e-08
-3.76098e-06
-3.15329e-08
-3.75174e-06
-3.00582e-08
-3.74292e-06
-2.8587e-08
-3.73464e-06
-2.69997e-08
-3.727e-06
-2.52125e-08
-3.71999e-06
-2.34937e-08
-3.71376e-06
-2.15041e-08
-3.70837e-06
-1.94169e-08
-3.70382e-06
-1.73439e-08
-3.70014e-06
-1.52742e-08
-3.69731e-06
-1.32676e-08
-3.6953e-06
-1.13137e-08
-3.69408e-06
-9.44929e-09
-3.69349e-06
-7.9237e-09
-3.69361e-06
-6.27317e-09
-3.69439e-06
-4.70556e-09
-3.69578e-06
-3.24121e-09
-3.69761e-06
-2.18777e-09
-3.69993e-06
-9.92739e-10
-3.70272e-06
2.07656e-10
-3.70591e-06
1.23318e-09
-3.70956e-06
2.41299e-09
-3.7135e-06
3.21141e-09
-3.71761e-06
3.81789e-09
-3.72186e-06
4.3337e-09
-3.72613e-06
4.67244e-09
-3.73037e-06
4.90268e-09
-3.73446e-06
4.95018e-09
-3.73832e-06
4.82499e-09
-3.74189e-06
4.65743e-09
-3.74498e-06
4.15047e-09
-3.74745e-06
3.39478e-09
-3.74913e-06
2.39117e-09
-3.74982e-06
1.0406e-09
-3.74929e-06
-6.74649e-10
-3.74718e-06
-2.99452e-09
-3.74309e-06
-5.99702e-09
-3.73667e-06
-9.46301e-09
-3.72728e-06
-1.4091e-08
-3.71431e-06
-1.96978e-08
-3.69711e-06
-2.64338e-08
-3.67488e-06
-3.45628e-08
-3.64716e-06
-4.33663e-08
-3.61357e-06
-5.27938e-08
-3.57394e-06
-6.24263e-08
-3.52838e-06
-7.18568e-08
-3.47762e-06
-7.99288e-08
-3.42287e-06
-8.59146e-08
-3.36572e-06
-8.91498e-08
-3.30815e-06
-8.90179e-08
-3.25221e-06
-8.54457e-08
-3.1999e-06
-7.85645e-08
-3.1529e-06
-6.88973e-08
-3.11244e-06
-5.72511e-08
-3.07918e-06
-4.45239e-08
-3.05348e-06
-3.12263e-08
-3.03512e-06
-1.82952e-08
-3.02404e-06
-5.37899e-09
-3.01941e-06
6.14353e-09
-3.02103e-06
1.74378e-08
-3.02815e-06
2.74805e-08
-3.04022e-06
3.66765e-08
-3.05667e-06
4.49585e-08
-3.07687e-06
5.2239e-08
-3.10008e-06
5.82783e-08
-3.12577e-06
6.34053e-08
-3.15324e-06
6.73213e-08
-3.18198e-06
7.03364e-08
-3.21096e-06
7.14493e-08
-3.24009e-06
7.23812e-08
-3.26916e-06
7.25198e-08
-3.29722e-06
7.04836e-08
-3.32585e-06
7.09602e-08
-3.3532e-06
6.71016e-08
-3.38231e-06
6.69058e-08
-3.41591e-06
7.08987e-08
8.77839e-08
-5.06385e-06
7.68364e-08
-5.11762e-06
1.27708e-07
-5.17767e-06
1.26941e-07
-5.24865e-06
1.41782e-07
-5.32166e-06
1.38155e-07
-5.38906e-06
1.20441e-07
-5.45329e-06
1.09363e-07
-5.51133e-06
9.1995e-08
-5.56295e-06
7.51396e-08
-5.60833e-06
5.91487e-08
-5.64789e-06
4.45595e-08
-5.68159e-06
3.00402e-08
-5.71009e-06
1.77512e-08
-5.73401e-06
7.35095e-09
-5.75359e-06
-2.21969e-09
-5.76987e-06
-9.01419e-09
-5.7827e-06
-1.59554e-08
-5.79311e-06
-2.03682e-08
-5.80132e-06
-2.41328e-08
-5.80804e-06
-2.5908e-08
-5.81352e-06
-2.72218e-08
-5.81802e-06
-2.77969e-08
-5.82176e-06
-2.77941e-08
-5.82507e-06
-2.67502e-08
-5.8281e-06
-2.55567e-08
-5.83106e-06
-2.40428e-08
-5.83402e-06
-2.22486e-08
-5.8371e-06
-2.04126e-08
-5.84041e-06
-1.81938e-08
-5.84405e-06
-1.57779e-08
-5.84806e-06
-1.33369e-08
-5.85249e-06
-1.08452e-08
-5.85735e-06
-8.41058e-09
-5.86264e-06
-6.01796e-09
-5.86836e-06
-3.73303e-09
-5.8744e-06
-1.87796e-09
-5.88083e-06
1.5543e-10
-5.88764e-06
2.09803e-09
-5.89479e-06
3.91747e-09
-5.90223e-06
5.2451e-09
-5.90993e-06
6.70533e-09
-5.91782e-06
8.10196e-09
-5.9259e-06
9.31092e-09
-5.93417e-06
1.06862e-08
-5.94253e-06
1.15683e-08
-5.95086e-06
1.21493e-08
-5.95912e-06
1.25982e-08
-5.9672e-06
1.27443e-08
-5.97501e-06
1.27151e-08
-5.98243e-06
1.23727e-08
-5.98933e-06
1.17289e-08
-5.99564e-06
1.09608e-08
-6.00111e-06
9.62568e-09
-6.00556e-06
7.84129e-09
-6.00876e-06
5.59253e-09
-6.01041e-06
2.68844e-09
-6.0102e-06
-8.81881e-10
-6.0077e-06
-5.49244e-09
-6.00242e-06
-1.12792e-08
-5.99384e-06
-1.80473e-08
-5.98121e-06
-2.67129e-08
-5.96374e-06
-3.71757e-08
-5.94063e-06
-4.95393e-08
-5.91099e-06
-6.42056e-08
-5.87403e-06
-8.03288e-08
-5.82906e-06
-9.77634e-08
-5.77561e-06
-1.15877e-07
-5.71347e-06
-1.3399e-07
-5.64305e-06
-1.50355e-07
-5.56531e-06
-1.63653e-07
-5.48182e-06
-1.72639e-07
-5.39482e-06
-1.76015e-07
-5.30693e-06
-1.73336e-07
-5.22101e-06
-1.64482e-07
-5.13981e-06
-1.50097e-07
-5.06558e-06
-1.31482e-07
-4.99983e-06
-1.1028e-07
-4.94355e-06
-8.75023e-08
-4.89681e-06
-6.50403e-08
-4.85976e-06
-4.24236e-08
-4.83134e-06
-2.22793e-08
-4.8113e-06
-2.60363e-09
-4.7986e-06
1.47844e-08
-4.79249e-06
3.05683e-08
-4.79208e-06
4.45465e-08
-4.79642e-06
5.65791e-08
-4.80442e-06
6.62728e-08
-4.81537e-06
7.43618e-08
-4.82826e-06
8.02076e-08
-4.84245e-06
8.45246e-08
-4.85657e-06
8.55709e-08
-4.87056e-06
8.6378e-08
-4.88469e-06
8.66477e-08
-4.89805e-06
8.38443e-08
-4.91349e-06
8.63997e-08
-4.9294e-06
8.3004e-08
-4.95163e-06
8.91415e-08
-4.98408e-06
1.03346e-07
1.38846e-07
-6.71051e-06
1.02916e-07
-6.77277e-06
1.89969e-07
-6.8486e-06
2.02772e-07
-6.9423e-06
2.3548e-07
-7.04179e-06
2.37652e-07
-7.13638e-06
2.15029e-07
-7.22858e-06
2.01564e-07
-7.31433e-06
1.77739e-07
-7.39292e-06
1.53737e-07
-7.46438e-06
1.30604e-07
-7.52908e-06
1.09256e-07
-7.58678e-06
8.77429e-08
-7.63813e-06
6.90979e-08
-7.68372e-06
5.29489e-08
-7.72368e-06
3.77356e-08
-7.75919e-06
2.65007e-08
-7.78992e-06
1.47703e-08
-7.81706e-06
6.77703e-09
-7.84082e-06
-3.82076e-10
-7.86201e-06
-4.7171e-09
-7.88089e-06
-8.33363e-09
-7.89778e-06
-1.09087e-08
-7.9129e-06
-1.26796e-08
-7.92662e-06
-1.30285e-08
-7.93915e-06
-1.30218e-08
-7.95078e-06
-1.24208e-08
-7.96161e-06
-1.14177e-08
-7.97182e-06
-1.01953e-08
-7.98159e-06
-8.42285e-09
-7.99107e-06
-6.30748e-09
-8.00032e-06
-4.07761e-09
-8.00948e-06
-1.68998e-09
-8.01859e-06
6.95547e-10
-8.02771e-06
3.10754e-09
-8.03689e-06
5.44326e-09
-8.04607e-06
7.30532e-09
-8.05537e-06
9.4519e-09
-8.06481e-06
1.15408e-08
-8.07442e-06
1.35301e-08
-8.08417e-06
1.49879e-08
-8.09407e-06
1.66056e-08
-8.10406e-06
1.80927e-08
-8.11416e-06
1.94145e-08
-8.1244e-06
2.09268e-08
-8.13469e-06
2.18565e-08
-8.14494e-06
2.23962e-08
-8.15512e-06
2.27787e-08
-8.1651e-06
2.27326e-08
-8.17485e-06
2.24556e-08
-8.1842e-06
2.17302e-08
-8.19304e-06
2.05697e-08
-8.20127e-06
1.91921e-08
-8.20866e-06
1.70118e-08
-8.21498e-06
1.41593e-08
-8.22e-06
1.06148e-08
-8.22339e-06
6.07928e-09
-8.22484e-06
5.69356e-10
-8.22395e-06
-6.38439e-09
-8.22028e-06
-1.49466e-08
-8.21337e-06
-2.49594e-08
-8.20255e-06
-3.75388e-08
-8.18708e-06
-5.26405e-08
-8.16633e-06
-7.02926e-08
-8.13951e-06
-9.10251e-08
-8.10593e-06
-1.13906e-07
-8.06494e-06
-1.38753e-07
-8.01601e-06
-1.6481e-07
-7.95873e-06
-1.91273e-07
-7.89307e-06
-2.16008e-07
-7.8194e-06
-2.37325e-07
-7.73844e-06
-2.536e-07
-7.6515e-06
-2.62952e-07
-7.56029e-06
-2.64551e-07
-7.46696e-06
-2.57808e-07
-7.37393e-06
-2.43133e-07
-7.2835e-06
-2.21909e-07
-7.19762e-06
-1.96164e-07
-7.11804e-06
-1.67081e-07
-7.04558e-06
-1.37499e-07
-6.98133e-06
-1.06673e-07
-6.92468e-06
-7.89247e-08
-6.876e-06
-5.12847e-08
-6.83453e-06
-2.66885e-08
-6.79975e-06
-4.21047e-09
-6.77086e-06
1.56529e-08
-6.7469e-06
3.26188e-08
-6.72663e-06
4.60068e-08
-6.70936e-06
5.70871e-08
-6.69389e-06
6.47454e-08
-6.67962e-06
7.02476e-08
-6.66497e-06
7.09197e-08
-6.65014e-06
7.15505e-08
-6.63597e-06
7.24805e-08
-6.62179e-06
6.96601e-08
-6.61197e-06
7.65807e-08
-6.6054e-06
7.64326e-08
-6.61076e-06
9.45003e-08
-6.63327e-06
1.25862e-07
1.90002e-07
-8.34825e-06
1.18434e-07
-8.41145e-06
2.53172e-07
-8.49518e-06
2.86497e-07
-8.60218e-06
3.4248e-07
-8.7183e-06
3.53777e-07
-8.83044e-06
3.27171e-07
-8.94094e-06
3.12056e-07
-9.04481e-06
2.81615e-07
-9.14097e-06
2.4989e-07
-9.22932e-06
2.18955e-07
-9.31018e-06
1.90121e-07
-9.38328e-06
1.60843e-07
-9.44917e-06
1.3499e-07
-9.50847e-06
1.12249e-07
-9.56121e-06
9.04724e-08
-9.60866e-06
7.39502e-08
-9.65037e-06
5.64801e-08
-9.6877e-06
4.41059e-08
-9.72083e-06
3.27463e-08
-9.75061e-06
2.5069e-08
-9.7774e-06
1.8455e-08
-9.80152e-06
1.32072e-08
-9.8232e-06
9.00602e-09
-9.84285e-06
6.62316e-09
-9.86074e-06
4.86537e-09
-9.8772e-06
4.03311e-09
-9.89238e-06
3.76415e-09
-9.90658e-06
4.00602e-09
-9.91994e-06
4.94047e-09
-9.93265e-06
6.40257e-09
-9.94484e-06
8.10648e-09
-9.95664e-06
1.0118e-08
-9.96817e-06
1.22257e-08
-9.97953e-06
1.44629e-08
-9.99078e-06
1.66892e-08
-1.0002e-05
1.84811e-08
-1.00132e-05
2.06636e-08
-1.00245e-05
2.28383e-08
-1.00359e-05
2.49695e-08
-1.00475e-05
2.65982e-08
-1.00593e-05
2.84003e-08
-1.00712e-05
3.00147e-08
-1.00833e-05
3.14966e-08
-1.00955e-05
3.31473e-08
-1.01079e-05
3.4199e-08
-1.01203e-05
3.47963e-08
-1.01327e-05
3.52184e-08
-1.01451e-05
3.50915e-08
-1.01573e-05
3.4683e-08
-1.01693e-05
3.36925e-08
-1.01808e-05
3.21309e-08
-1.01919e-05
3.02472e-08
-1.02022e-05
2.73329e-08
-1.02116e-05
2.3535e-08
-1.02198e-05
1.88243e-08
-1.02265e-05
1.27974e-08
-1.02315e-05
5.53433e-09
-1.02343e-05
-3.5464e-09
-1.02347e-05
-1.45862e-08
-1.02321e-05
-2.75057e-08
-1.02262e-05
-4.34623e-08
-1.02163e-05
-6.25027e-08
-1.02021e-05
-8.45475e-08
-1.01829e-05
-1.1019e-07
-1.01583e-05
-1.38489e-07
-1.01279e-05
-1.69205e-07
-1.00912e-05
-2.01484e-07
-1.0048e-05
-2.34442e-07
-9.99827e-06
-2.65772e-07
-9.94204e-06
-2.93558e-07
-9.87959e-06
-3.16048e-07
-9.81152e-06
-3.31024e-07
-9.73851e-06
-3.37556e-07
-9.66157e-06
-3.34749e-07
-9.58191e-06
-3.22799e-07
-9.50076e-06
-3.03056e-07
-9.41925e-06
-2.77675e-07
-9.33876e-06
-2.4757e-07
-9.26e-06
-2.16258e-07
-9.18441e-06
-1.82261e-07
-9.1117e-06
-1.51637e-07
-9.04288e-06
-1.20101e-07
-8.97772e-06
-9.18521e-08
-8.91626e-06
-6.56747e-08
-8.85816e-06
-4.24456e-08
-8.80289e-06
-2.26476e-08
-8.7495e-06
-7.38344e-09
-8.69768e-06
5.2629e-09
-8.64645e-06
1.35204e-08
-8.59549e-06
1.9283e-08
-8.54332e-06
1.87561e-08
-8.49059e-06
1.88179e-08
-8.43892e-06
2.08068e-08
-8.38806e-06
1.88048e-08
-8.34398e-06
3.25035e-08
-8.30617e-06
3.86214e-08
-8.28589e-06
7.42127e-08
-8.28992e-06
1.29894e-07
2.32816e-07
-9.89826e-06
1.17648e-07
-9.95589e-06
3.10807e-07
-1.004e-05
3.70599e-07
-1.01513e-05
4.53745e-07
-1.02744e-05
4.76892e-07
-1.03947e-05
4.47535e-07
-1.05143e-05
4.31668e-07
-1.06275e-05
3.94808e-07
-1.07329e-05
3.55285e-07
-1.08304e-05
3.16436e-07
-1.09203e-05
2.79954e-07
-1.10021e-05
2.42725e-07
-1.10766e-05
2.09432e-07
-1.11442e-05
1.7984e-07
-1.12049e-05
1.51185e-07
-1.126e-05
1.29115e-07
-1.13091e-05
1.05548e-07
-1.13535e-05
8.85161e-08
-1.13934e-05
7.26664e-08
-1.14297e-05
6.13623e-08
-1.14628e-05
5.14692e-08
-1.14928e-05
4.3277e-08
-1.15202e-05
3.63547e-08
-1.15452e-05
3.1647e-08
-1.15682e-05
2.78545e-08
-1.15895e-05
2.53409e-08
-1.16093e-05
2.35583e-08
-1.16279e-05
2.26207e-08
-1.16455e-05
2.25148e-08
-1.16622e-05
2.31321e-08
-1.16782e-05
2.4145e-08
-1.16938e-05
2.56416e-08
-1.17089e-05
2.73477e-08
-1.17237e-05
2.93105e-08
-1.17384e-05
3.13504e-08
-1.1753e-05
3.30363e-08
-1.17675e-05
3.52222e-08
-1.17821e-05
3.74743e-08
-1.17969e-05
3.97596e-08
-1.18119e-05
4.16032e-08
-1.18272e-05
4.36487e-08
-1.18426e-05
4.54476e-08
-1.18583e-05
4.71678e-08
-1.18742e-05
4.90194e-08
-1.18903e-05
5.02937e-08
-1.19065e-05
5.1059e-08
-1.1923e-05
5.16548e-08
-1.19394e-05
5.15752e-08
-1.19559e-05
5.11763e-08
-1.19723e-05
5.0068e-08
-1.19884e-05
4.82575e-08
-1.20042e-05
4.60156e-08
-1.20194e-05
4.25338e-08
-1.20338e-05
3.79696e-08
-1.20473e-05
3.23018e-08
-1.20595e-05
2.5021e-08
-1.20703e-05
1.62848e-08
-1.20792e-05
5.39304e-09
-1.20861e-05
-7.75306e-09
-1.20904e-05
-2.31337e-08
-1.2092e-05
-4.18834e-08
-1.20904e-05
-6.41456e-08
-1.20852e-05
-8.97127e-08
-1.20762e-05
-1.19233e-07
-1.20629e-05
-1.51785e-07
-1.2045e-05
-1.87086e-07
-1.20223e-05
-2.24205e-07
-1.19945e-05
-2.62245e-07
-1.19614e-05
-2.98836e-07
-1.1923e-05
-3.31939e-07
-1.18793e-05
-3.59811e-07
-1.18302e-05
-3.80042e-07
-1.17761e-05
-3.91729e-07
-1.1717e-05
-3.93772e-07
-1.16536e-05
-3.86211e-07
-1.15863e-05
-3.70363e-07
-1.15155e-05
-3.48491e-07
-1.1442e-05
-3.21104e-07
-1.13659e-05
-2.92298e-07
-1.12886e-05
-2.59607e-07
-1.12094e-05
-2.30812e-07
-1.11295e-05
-1.9999e-07
-1.10488e-05
-1.72573e-07
-1.09676e-05
-1.46881e-07
-1.08859e-05
-1.24171e-07
-1.08034e-05
-1.05105e-07
-1.07196e-05
-9.11587e-08
-1.06347e-05
-7.96711e-08
-1.0548e-05
-7.31557e-08
-1.04597e-05
-6.9008e-08
-1.03687e-05
-7.22578e-08
-1.02762e-05
-7.36841e-08
-1.01847e-05
-7.07179e-08
-1.00946e-05
-7.13371e-08
-1.00131e-05
-4.89138e-08
-9.94062e-06
-3.39028e-08
-9.89036e-06
2.39533e-08
-9.8708e-06
1.10339e-07
2.61058e-07
-1.13327e-05
9.86877e-08
-1.13825e-05
3.60571e-07
-1.14638e-05
4.51937e-07
-1.15736e-05
5.63501e-07
-1.16975e-05
6.00822e-07
-1.18205e-05
5.70533e-07
-1.19438e-05
5.55005e-07
-1.20615e-05
5.12471e-07
-1.21718e-05
4.65564e-07
-1.22746e-05
4.19239e-07
-1.23701e-05
3.75414e-07
-1.24579e-05
3.30581e-07
-1.25385e-05
2.90074e-07
-1.26126e-05
2.53854e-07
-1.26798e-05
2.1845e-07
-1.27416e-05
1.90924e-07
-1.27974e-05
1.61315e-07
-1.28486e-05
1.39675e-07
-1.28952e-05
1.19346e-07
-1.29383e-05
1.04375e-07
-1.2978e-05
9.11756e-08
-1.30147e-05
7.99807e-08
-1.30486e-05
7.02643e-08
-1.30801e-05
6.31271e-08
-1.31094e-05
5.71864e-08
-1.31369e-05
5.28437e-08
-1.31627e-05
4.94202e-08
-1.31873e-05
4.72193e-08
-1.32108e-05
4.59547e-08
-1.32333e-05
4.56107e-08
-1.32549e-05
4.58189e-08
-1.3276e-05
4.67053e-08
-1.32966e-05
4.79229e-08
-1.33168e-05
4.95388e-08
-1.33368e-05
5.13373e-08
-1.33567e-05
5.29076e-08
-1.33765e-05
5.50778e-08
-1.33964e-05
5.74031e-08
-1.34165e-05
5.9852e-08
-1.34369e-05
6.19525e-08
-1.34575e-05
6.42862e-08
-1.34784e-05
6.63593e-08
-1.34997e-05
6.83928e-08
-1.35211e-05
7.04887e-08
-1.35429e-05
7.20857e-08
-1.3565e-05
7.31387e-08
-1.35874e-05
7.40328e-08
-1.36099e-05
7.41407e-08
-1.36327e-05
7.39032e-08
-1.36554e-05
7.28327e-08
-1.36781e-05
7.09392e-08
-1.37006e-05
6.8515e-08
-1.37227e-05
6.46585e-08
-1.37443e-05
5.95491e-08
-1.37652e-05
5.31726e-08
-1.37851e-05
4.49181e-08
-1.38038e-05
3.50281e-08
-1.38211e-05
2.26839e-08
-1.38367e-05
7.81974e-09
-1.38502e-05
-9.6207e-09
-1.38615e-05
-3.06401e-08
-1.38701e-05
-5.5471e-08
-1.3876e-05
-8.38627e-08
-1.38787e-05
-1.16486e-07
-1.3878e-05
-1.52473e-07
-1.38736e-05
-1.91527e-07
-1.38651e-05
-2.3269e-07
-1.38523e-05
-2.75068e-07
-1.38348e-05
-3.16363e-07
-1.38122e-05
-3.54469e-07
-1.37843e-05
-3.87734e-07
-1.37507e-05
-4.13611e-07
-1.37112e-05
-4.31303e-07
-1.36654e-05
-4.39507e-07
-1.36135e-05
-4.38122e-07
-1.35555e-05
-4.28413e-07
-1.34912e-05
-4.1272e-07
-1.34213e-05
-3.91088e-07
-1.33454e-05
-3.68147e-07
-1.32647e-05
-3.40328e-07
-1.31784e-05
-3.17136e-07
-1.30875e-05
-2.9085e-07
-1.2992e-05
-2.68089e-07
-1.28923e-05
-2.46614e-07
-1.27884e-05
-2.28003e-07
-1.26805e-05
-2.13042e-07
-1.25681e-05
-2.03515e-07
-1.24519e-05
-1.95909e-07
-1.23315e-05
-1.93539e-07
-1.22075e-05
-1.93008e-07
-1.20792e-05
-2.00556e-07
-1.19484e-05
-2.04466e-07
-1.18184e-05
-2.00752e-07
-1.16902e-05
-1.99531e-07
-1.15723e-05
-1.66831e-07
-1.14656e-05
-1.40621e-07
-1.1385e-05
-5.66392e-08
-1.13405e-05
6.58838e-08
2.72223e-07
-1.26613e-05
6.22398e-08
-1.27014e-05
4.00632e-07
-1.27776e-05
5.28201e-07
-1.28833e-05
6.69231e-07
-1.30053e-05
7.22822e-07
-1.31285e-05
6.93737e-07
-1.32534e-05
6.79852e-07
-1.33736e-05
6.32634e-07
-1.34872e-05
5.79163e-07
-1.35941e-05
5.26164e-07
-1.36943e-05
4.75657e-07
-1.37877e-05
4.23914e-07
-1.38743e-05
3.7673e-07
-1.39548e-05
3.34356e-07
-1.4029e-05
2.92604e-07
-1.4098e-05
2.59962e-07
-1.41613e-05
2.24592e-07
-1.42202e-05
1.98553e-07
-1.42747e-05
1.73923e-07
-1.43258e-05
1.55409e-07
-1.43736e-05
1.38994e-07
-1.44185e-05
1.24838e-07
-1.44605e-05
1.12328e-07
-1.45001e-05
1.02732e-07
-1.45375e-05
9.45889e-08
-1.4573e-05
8.83415e-08
-1.46068e-05
8.31855e-08
-1.46392e-05
7.96347e-08
-1.46704e-05
7.71074e-08
-1.47004e-05
7.56989e-08
-1.47296e-05
7.49995e-08
-1.47581e-05
7.51814e-08
-1.4786e-05
7.58216e-08
-1.48135e-05
7.70204e-08
-1.48407e-05
7.85125e-08
-1.48677e-05
7.99222e-08
-1.48946e-05
8.20515e-08
-1.49217e-05
8.4432e-08
-1.49489e-05
8.70531e-08
-1.49764e-05
8.94314e-08
-1.50042e-05
9.20978e-08
-1.50323e-05
9.44947e-08
-1.50608e-05
9.69077e-08
-1.50896e-05
9.93241e-08
-1.51189e-05
1.01342e-07
-1.51486e-05
1.02798e-07
-1.51786e-05
1.04118e-07
-1.52091e-05
1.04549e-07
-1.52398e-05
1.04627e-07
-1.52707e-05
1.03763e-07
-1.53017e-05
1.01967e-07
-1.53328e-05
9.95511e-08
-1.53637e-05
9.55382e-08
-1.53942e-05
9.01208e-08
-1.54243e-05
8.32941e-08
-1.54538e-05
7.43541e-08
-1.54824e-05
6.36229e-08
-1.55099e-05
5.01658e-08
-1.5536e-05
3.39527e-08
-1.55604e-05
1.48265e-08
-1.5583e-05
-8.06174e-09
-1.56035e-05
-3.50284e-08
-1.56215e-05
-6.57878e-08
-1.5637e-05
-1.01062e-07
-1.56494e-05
-1.40077e-07
-1.56583e-05
-1.82562e-07
-1.56634e-05
-2.27572e-07
-1.56642e-05
-2.7427e-07
-1.56601e-05
-3.20474e-07
-1.56505e-05
-3.64062e-07
-1.56348e-05
-4.03498e-07
-1.56123e-05
-4.36121e-07
-1.55823e-05
-4.61252e-07
-1.55445e-05
-4.77362e-07
-1.54984e-05
-4.8419e-07
-1.54439e-05
-4.82921e-07
-1.53806e-05
-4.75973e-07
-1.53088e-05
-4.62877e-07
-1.52282e-05
-4.48768e-07
-1.51396e-05
-4.28939e-07
-1.50422e-05
-4.14564e-07
-1.49369e-05
-3.96084e-07
-1.48238e-05
-3.81222e-07
-1.47033e-05
-3.67131e-07
-1.45757e-05
-3.55639e-07
-1.44411e-05
-3.47612e-07
-1.42995e-05
-3.45084e-07
-1.41518e-05
-3.43631e-07
-1.3998e-05
-3.47346e-07
-1.3839e-05
-3.52014e-07
-1.36745e-05
-3.65033e-07
-1.35069e-05
-3.72118e-07
-1.33399e-05
-3.67716e-07
-1.31754e-05
-3.6402e-07
-1.30226e-05
-3.19646e-07
-1.28832e-05
-2.79978e-07
-1.27733e-05
-1.6655e-07
-1.27043e-05
-3.14068e-09
2.65666e-07
-1.3902e-05
1.02456e-08
-1.39332e-05
4.31827e-07
-1.40051e-05
6.00025e-07
-1.41053e-05
7.69444e-07
-1.42238e-05
8.41388e-07
-1.43464e-05
8.16284e-07
-1.44721e-05
8.05531e-07
-1.45946e-05
7.55179e-07
-1.47117e-05
6.9627e-07
-1.48233e-05
6.37716e-07
-1.4929e-05
5.81412e-07
-1.50287e-05
5.23624e-07
-1.51225e-05
4.70464e-07
-1.52107e-05
4.22555e-07
-1.5293e-05
3.74985e-07
-1.53707e-05
3.37645e-07
-1.5443e-05
2.96892e-07
-1.55112e-05
2.66699e-07
-1.55752e-05
2.37992e-07
-1.56359e-05
2.16075e-07
-1.56935e-05
1.96545e-07
-1.57481e-05
1.79484e-07
-1.58e-05
1.64204e-07
-1.58494e-05
1.52155e-07
-1.58966e-05
1.41754e-07
-1.59417e-05
1.33518e-07
-1.59851e-05
1.26544e-07
-1.6027e-05
1.21514e-07
-1.60675e-05
1.17612e-07
-1.61068e-05
1.1503e-07
-1.61451e-05
1.1331e-07
-1.61826e-05
1.12681e-07
-1.62195e-05
1.12645e-07
-1.62558e-05
1.13338e-07
-1.62917e-05
1.14451e-07
-1.63274e-05
1.15647e-07
-1.63631e-05
1.17693e-07
-1.63987e-05
1.20105e-07
-1.64346e-05
1.22885e-07
-1.64707e-05
1.25526e-07
-1.65071e-05
1.28545e-07
-1.65439e-05
1.31322e-07
-1.65812e-05
1.34175e-07
-1.66189e-05
1.3701e-07
-1.66571e-05
1.39539e-07
-1.66958e-05
1.41504e-07
-1.67351e-05
1.43373e-07
-1.67748e-05
1.44272e-07
-1.6815e-05
1.44812e-07
-1.68555e-05
1.44317e-07
-1.68964e-05
1.42799e-07
-1.69374e-05
1.40586e-07
-1.69785e-05
1.36623e-07
-1.70195e-05
1.31125e-07
-1.70603e-05
1.24087e-07
-1.71006e-05
1.14713e-07
-1.71404e-05
1.03402e-07
-1.71793e-05
8.90979e-08
-1.72172e-05
7.18036e-08
-1.72536e-05
5.12738e-08
-1.72884e-05
2.67403e-08
-1.73213e-05
-2.17949e-09
-1.73519e-05
-3.51786e-08
-1.73799e-05
-7.30726e-08
-1.74048e-05
-1.15172e-07
-1.74261e-05
-1.61306e-07
-1.74431e-05
-2.10562e-07
-1.74551e-05
-2.62206e-07
-1.74614e-05
-3.14197e-07
-1.74611e-05
-3.64393e-07
-1.74532e-05
-4.11396e-07
-1.74369e-05
-4.52401e-07
-1.74113e-05
-4.86809e-07
-1.73758e-05
-5.12873e-07
-1.73299e-05
-5.30119e-07
-1.72732e-05
-5.3965e-07
-1.72052e-05
-5.43941e-07
-1.71261e-05
-5.42002e-07
-1.70354e-05
-5.3942e-07
-1.6934e-05
-5.30376e-07
-1.68209e-05
-5.27602e-07
-1.66973e-05
-5.19751e-07
-1.6563e-05
-5.15515e-07
-1.64187e-05
-5.11438e-07
-1.62648e-05
-5.09519e-07
-1.61017e-05
-5.10684e-07
-1.59297e-05
-5.17128e-07
-1.57498e-05
-5.23565e-07
-1.55624e-05
-5.34745e-07
-1.53687e-05
-5.45687e-07
-1.51689e-05
-5.64849e-07
-1.49656e-05
-5.75364e-07
-1.47633e-05
-5.7005e-07
-1.45643e-05
-5.63007e-07
-1.43784e-05
-5.05592e-07
-1.42082e-05
-4.50168e-07
-1.40704e-05
-3.04342e-07
-1.39779e-05
-9.5654e-08
2.41839e-07
-1.50737e-05
-5.43567e-08
-1.50962e-05
4.54348e-07
-1.51637e-05
6.67527e-07
-1.52596e-05
8.65334e-07
-1.53759e-05
9.57698e-07
-1.54991e-05
9.3945e-07
-1.5627e-05
9.33436e-07
-1.57532e-05
8.81454e-07
-1.58753e-05
8.18382e-07
-1.59931e-05
7.55437e-07
-1.61059e-05
6.94274e-07
-1.62137e-05
6.31383e-07
-1.63162e-05
5.72965e-07
-1.64137e-05
5.20109e-07
-1.6506e-05
4.67252e-07
-1.65939e-05
4.25578e-07
-1.66769e-05
3.79814e-07
-1.67558e-05
3.45677e-07
-1.68309e-05
3.13091e-07
-1.69027e-05
2.87879e-07
-1.69715e-05
2.65309e-07
-1.70374e-05
2.45378e-07
-1.71005e-05
2.27327e-07
-1.71611e-05
2.12779e-07
-1.72194e-05
2.00053e-07
-1.72757e-05
1.89737e-07
-1.733e-05
1.80831e-07
-1.73826e-05
1.74212e-07
-1.74339e-05
1.68815e-07
-1.74837e-05
1.64926e-07
-1.75325e-05
1.62062e-07
-1.75803e-05
1.60504e-07
-1.76274e-05
1.59686e-07
-1.76738e-05
1.59771e-07
-1.77198e-05
1.60423e-07
-1.77655e-05
1.61339e-07
-1.7811e-05
1.63249e-07
-1.78566e-05
1.6566e-07
-1.79023e-05
1.68581e-07
-1.79482e-05
1.71481e-07
-1.79945e-05
1.74871e-07
-1.80413e-05
1.78063e-07
-1.80885e-05
1.81406e-07
-1.81362e-05
1.84722e-07
-1.81845e-05
1.87838e-07
-1.82334e-05
1.90414e-07
-1.8283e-05
1.9294e-07
-1.83332e-05
1.9443e-07
-1.83839e-05
1.95565e-07
-1.84352e-05
1.95588e-07
-1.84869e-05
1.945e-07
-1.8539e-05
1.92653e-07
-1.85912e-05
1.88907e-07
-1.86436e-05
1.83504e-07
-1.8696e-05
1.76423e-07
-1.8748e-05
1.66786e-07
-1.87997e-05
1.55038e-07
-1.88506e-05
1.40015e-07
-1.89005e-05
1.21729e-07
-1.89491e-05
9.98264e-08
-1.89959e-05
7.36126e-08
-1.90407e-05
4.26077e-08
-1.9083e-05
7.0942e-09
-1.91222e-05
-3.38168e-08
-1.91579e-05
-7.95659e-08
-1.91891e-05
-1.30098e-07
-1.9215e-05
-1.84587e-07
-1.92349e-05
-2.42379e-07
-1.92475e-05
-3.0158e-07
-1.92518e-05
-3.60027e-07
-1.92468e-05
-4.16408e-07
-1.92315e-05
-4.67748e-07
-1.92048e-05
-5.13518e-07
-1.9166e-05
-5.51687e-07
-1.91145e-05
-5.8159e-07
-1.90499e-05
-6.04221e-07
-1.89718e-05
-6.22093e-07
-1.88801e-05
-6.3371e-07
-1.87744e-05
-6.45044e-07
-1.86556e-05
-6.49224e-07
-1.85228e-05
-6.60381e-07
-1.83771e-05
-6.65499e-07
-1.82185e-05
-6.7408e-07
-1.80478e-05
-6.82087e-07
-1.78658e-05
-6.91612e-07
-1.76728e-05
-7.03633e-07
-1.74695e-05
-7.20417e-07
-1.72572e-05
-7.35872e-07
-1.70366e-05
-7.55342e-07
-1.68092e-05
-7.73138e-07
-1.65754e-05
-7.98623e-07
-1.63383e-05
-8.12472e-07
-1.61026e-05
-8.05769e-07
-1.58713e-05
-7.94237e-07
-1.56545e-05
-7.22427e-07
-1.54558e-05
-6.48853e-07
-1.52922e-05
-4.67944e-07
-1.5178e-05
-2.09838e-07
2.02079e-07
-1.61957e-05
-1.27244e-07
-1.62118e-05
4.70432e-07
-1.62773e-05
7.33014e-07
-1.63701e-05
9.58142e-07
-1.64855e-05
1.07304e-06
-1.66108e-05
1.0648e-06
-1.67425e-05
1.06512e-06
-1.68743e-05
1.01327e-06
-1.70033e-05
9.47323e-07
-1.7129e-05
8.81155e-07
-1.72507e-05
8.16019e-07
-1.73682e-05
7.48891e-07
-1.74811e-05
6.85863e-07
-1.75896e-05
6.28597e-07
-1.76933e-05
5.70922e-07
-1.77929e-05
5.25226e-07
-1.78879e-05
4.74772e-07
-1.79791e-05
4.36842e-07
-1.80665e-05
4.0053e-07
-1.81507e-05
3.72067e-07
-1.82319e-05
3.465e-07
-1.83102e-05
3.23691e-07
-1.83857e-05
3.02852e-07
-1.84587e-05
2.85759e-07
-1.85293e-05
2.70618e-07
-1.85976e-05
2.58106e-07
-1.8664e-05
2.47159e-07
-1.87285e-05
2.38798e-07
-1.87915e-05
2.31774e-07
-1.8853e-05
2.26439e-07
-1.89132e-05
2.22297e-07
-1.89724e-05
2.19681e-07
-1.90307e-05
2.17952e-07
-1.90882e-05
2.17325e-07
-1.91452e-05
2.17425e-07
-1.92019e-05
2.17995e-07
-1.92584e-05
2.19705e-07
-1.93148e-05
2.22065e-07
-1.93713e-05
2.2509e-07
-1.9428e-05
2.28224e-07
-1.94851e-05
2.31979e-07
-1.95427e-05
2.35604e-07
-1.96007e-05
2.39466e-07
-1.96593e-05
2.43317e-07
-1.97186e-05
2.47079e-07
-1.97785e-05
2.5034e-07
-1.98391e-05
2.53592e-07
-1.99005e-05
2.55767e-07
-1.99625e-05
2.57586e-07
-2.00251e-05
2.58221e-07
-2.00883e-05
2.57665e-07
-2.01519e-05
2.56261e-07
-2.02158e-05
2.52822e-07
-2.02799e-05
2.47581e-07
-2.0344e-05
2.40497e-07
-2.04078e-05
2.30608e-07
-2.04711e-05
2.18383e-07
-2.05337e-05
2.02552e-07
-2.0595e-05
1.83097e-07
-2.06548e-05
1.59569e-07
-2.07125e-05
1.31285e-07
-2.07675e-05
9.76697e-08
-2.08194e-05
5.8942e-08
-2.08673e-05
1.40883e-08
-2.09104e-05
-3.64035e-08
-2.09479e-05
-9.26117e-08
-2.09787e-05
-1.53808e-07
-2.10017e-05
-2.19401e-07
-2.10156e-05
-2.87629e-07
-2.10194e-05
-3.56265e-07
-2.10118e-05
-4.24039e-07
-2.09917e-05
-4.87774e-07