/*--------------------------------*- C++ -*----------------------------------*\
| =========                 |                                                 |
| \\      /  F ield         | OpenFOAM: The Open Source CFD Toolbox           |
|  \\    /   O peration     | Version:  2.3.1                                 |
|   \\  /    A nd           | Web:      www.OpenFOAM.org                      |
|    \\/     M anipulation  |                                                 |
\*---------------------------------------------------------------------------*/
FoamFile
{
    version     2.0;
    format      ascii;
    class       volVectorField;
    location    "10000";
    object      U;
}
// * * * * * * * * * * * * * * * * * * * * * * * * * * * * * * * * * * * * * //

dimensions      [0 1 -1 0 0 0 0];

internalField   nonuniform List<vector> 
14751
(
(0.00161678 -9.57177e-08 0)
(0.00163287 -2.36981e-07 0)
(0.00165385 -5.53345e-08 2.06623e-27)
(0.00166489 -3.64249e-08 -2.067e-27)
(0.00167615 5.02838e-08 8.13263e-27)
(0.00168088 1.1691e-07 -1.55333e-25)
(0.00168222 1.71928e-07 0)
(0.00168001 2.35413e-07 3.70938e-27)
(0.0016739 2.85776e-07 5.77946e-28)
(0.00166469 3.29985e-07 5.45136e-27)
(0.00165266 3.64572e-07 1.14807e-27)
(0.00163814 3.9445e-07 -7.45829e-25)
(0.00162141 4.15062e-07 0)
(0.00160314 4.27198e-07 2.8457e-26)
(0.00158358 4.33902e-07 9.16434e-25)
(0.00156319 4.29451e-07 5.04852e-25)
(0.00154231 4.22036e-07 -3.4377e-26)
(0.00152112 4.04895e-07 3.44074e-26)
(0.00149999 3.86156e-07 5.92191e-25)
(0.0014791 3.61901e-07 6.17658e-25)
(0.00145875 3.3728e-07 0)
(0.00143896 3.11725e-07 7.04974e-25)
(0.0014199 2.86997e-07 -4.20681e-26)
(0.00140169 2.62331e-07 4.42725e-26)
(0.00138446 2.39352e-07 -4.43062e-26)
(0.00136815 2.17373e-07 -1.46176e-24)
(0.00135281 1.97254e-07 0)
(0.00133844 1.77884e-07 -3.7702e-25)
(0.00132502 1.60237e-07 0)
(0.0013126 1.43613e-07 0)
(0.00130116 1.28418e-07 0)
(0.00129066 1.14383e-07 0)
(0.00128109 1.01748e-07 0)
(0.00127238 9.01999e-08 -2.45564e-26)
(0.00126453 7.97471e-08 2.45644e-26)
(0.00125744 7.01213e-08 -8.09888e-25)
(0.00125106 6.17811e-08 8.07935e-25)
(0.0012454 5.43065e-08 7.80356e-25)
(0.0012404 4.75875e-08 0)
(0.00123599 4.10725e-08 0)
(0.00123208 3.54437e-08 -5.9483e-27)
(0.00122874 3.16318e-08 5.94868e-27)
(0.0012259 2.74323e-08 5.82456e-27)
(0.00122355 2.47787e-08 -5.82496e-27)
(0.00122167 2.17127e-08 -2.83769e-27)
(0.00122015 1.94772e-08 2.83785e-27)
(0.00121899 1.75087e-08 1.37558e-27)
(0.00121813 1.63278e-08 3.47824e-25)
(0.00121754 1.52839e-08 0)
(0.00121719 1.48655e-08 -3.2509e-28)
(0.00121703 1.49747e-08 3.25084e-28)
(0.00121705 1.56292e-08 6.21939e-28)
(0.00121722 1.66353e-08 -6.21922e-28)
(0.00121745 1.81481e-08 -1.18275e-27)
(0.00121771 2.00938e-08 -2.99839e-25)
(0.00121794 2.2915e-08 4.53542e-27)
(0.00121808 2.61119e-08 -2.23435e-27)
(0.00121803 3.06876e-08 0)
(0.00121762 3.65647e-08 0)
(0.00121677 4.49678e-08 0)
(0.00121531 5.38564e-08 9.78383e-25)
(0.00121299 6.62396e-08 1.87072e-24)
(0.00120961 7.85384e-08 7.17771e-27)
(0.00120486 9.26043e-08 6.53244e-27)
(0.0011985 1.1003e-07 5.86451e-27)
(0.00119043 1.28781e-07 -4.09952e-25)
(0.00118056 1.4797e-07 3.7543e-25)
(0.0011689 1.66174e-07 0)
(0.00115563 1.83068e-07 -9.57152e-27)
(0.00114121 1.96048e-07 9.57029e-27)
(0.0011262 2.04199e-07 0)
(0.00111132 2.05831e-07 0)
(0.00109739 2.01494e-07 0)
(0.00108516 1.91108e-07 0)
(0.00107532 1.75677e-07 -2.1694e-26)
(0.0010684 1.5655e-07 8.61914e-27)
(0.00106471 1.35827e-07 1.43192e-26)
(0.00106444 1.12424e-07 -1.29192e-26)
(0.0010676 9.06556e-08 1.14813e-26)
(0.00107419 6.35225e-08 4.38376e-27)
(0.00108411 4.04699e-08 -4.85358e-27)
(0.00109715 1.055e-08 0)
(0.00111334 -1.81746e-08 0)
(0.00113234 -5.11062e-08 -1.542e-27)
(0.00115412 -8.49342e-08 1.54046e-27)
(0.00117846 -1.2067e-07 0)
(0.00120516 -1.55047e-07 0)
(0.00123398 -1.91303e-07 0)
(0.00126466 -2.23695e-07 0)
(0.00129701 -2.59098e-07 -1.74853e-25)
(0.00133057 -2.85126e-07 1.38891e-27)
(0.00136493 -3.10614e-07 0)
(0.00140008 -3.35749e-07 1.41215e-27)
(0.00143489 -3.39244e-07 6.97842e-27)
(0.00146944 -3.60159e-07 -3.65684e-27)
(0.0015032 -3.46532e-07 1.20011e-27)
(0.00153414 -3.27161e-07 2.97788e-26)
(0.00156146 -2.61582e-07 -3.96543e-28)
(0.0015932 -3.86769e-07 -2.51564e-26)
(0.00479359 -1.45598e-06 9.24281e-28)
(0.00483523 -1.84918e-06 0)
(0.0048879 -1.10592e-06 4.58534e-24)
(0.00491896 -8.16263e-07 1.91858e-25)
(0.00494976 -3.66424e-07 -2.02899e-23)
(0.00496534 9.05938e-08 -3.04193e-25)
(0.00497201 4.21497e-07 -2.40748e-25)
(0.00496958 7.87703e-07 0)
(0.00495725 1.10167e-06 5.13489e-23)
(0.00493693 1.37794e-06 -3.23738e-24)
(0.00490926 1.61168e-06 0)
(0.00487519 1.81292e-06 1.08863e-24)
(0.00483545 1.96929e-06 0)
(0.00479164 2.08261e-06 0)
(0.00474448 2.16592e-06 -8.0145e-23)
(0.00469508 2.20167e-06 -1.24872e-23)
(0.00464433 2.22407e-06 1.03149e-22)
(0.00459268 2.20594e-06 2.79164e-23)
(0.00454117 2.17532e-06 -2.8917e-23)
(0.00449017 2.11868e-06 -9.37138e-25)
(0.00444051 2.04824e-06 -1.58658e-23)
(0.00439227 1.96561e-06 1.49084e-23)
(0.00434585 1.87413e-06 0)
(0.00430158 1.77415e-06 0)
(0.00425979 1.66996e-06 0)
(0.00422036 1.56169e-06 2.24946e-24)
(0.00418342 1.45548e-06 -1.2823e-22)
(0.00414898 1.34695e-06 -1.66999e-22)
(0.00411702 1.24267e-06 0)
(0.00408766 1.13927e-06 6.68251e-23)
(0.00406082 1.03984e-06 8.67105e-23)
(0.00403644 9.4387e-07 -7.7649e-23)
(0.00401445 8.53028e-07 0)
(0.00399474 7.66359e-07 9.78837e-24)
(0.00397725 6.84602e-07 -9.80112e-23)
(0.00396176 6.07376e-07 1.59251e-23)
(0.00394813 5.36576e-07 -6.12117e-24)
(0.00393636 4.69862e-07 -4.02238e-23)
(0.00392633 4.07987e-07 0)
(0.00391784 3.49248e-07 0)
(0.00391068 2.96129e-07 4.7641e-24)
(0.00390497 2.50492e-07 -4.76609e-24)
(0.00390057 2.05922e-07 1.6448e-23)
(0.00389741 1.68329e-07 2.33456e-24)
(0.00389547 1.31275e-07 0)
(0.00389444 9.98652e-08 0)
(0.00389429 7.10715e-08 0)
(0.0038949 4.71944e-08 -4.92075e-24)
(0.00389616 2.57867e-08 0)
(0.00389798 8.95531e-09 0)
(0.00390023 -3.80407e-09 -5.09916e-25)
(0.00390283 -1.26821e-08 5.09793e-25)
(0.00390568 -1.74169e-08 0)
(0.00390857 -1.72131e-08 -7.67758e-24)
(0.00391137 -1.22877e-08 1.54117e-23)
(0.00391389 -4.05673e-10 1.78807e-24)
(0.00391592 1.79857e-08 -1.41378e-23)
(0.00391717 4.95336e-08 -1.73182e-24)
(0.00391715 9.54907e-08 2.31062e-23)
(0.00391551 1.59841e-07 3.23245e-24)
(0.00391177 2.39432e-07 -4.51743e-24)
(0.00390515 3.44833e-07 6.14177e-26)
(0.00389504 4.66506e-07 0)
(0.00388052 6.11177e-07 -5.21266e-24)
(0.00386086 7.79272e-07 5.21133e-24)
(0.00383569 9.59209e-07 6.0122e-25)
(0.00380469 1.1418e-06 -5.66753e-25)
(0.00376789 1.31265e-06 0)
(0.00372579 1.45655e-06 0)
(0.00367968 1.55167e-06 -2.93817e-23)
(0.00363122 1.5843e-06 0)
(0.00358258 1.54099e-06 5.84503e-24)
(0.00353619 1.42246e-06 -5.84338e-24)
(0.00349436 1.23256e-06 0)
(0.00345924 9.83615e-07 3.37958e-26)
(0.00343247 6.93136e-07 0)
(0.0034151 3.8029e-07 -2.45144e-26)
(0.00340773 5.30782e-08 0)
(0.00341044 -2.66568e-07 -1.60732e-23)
(0.00342319 -5.95005e-07 0)
(0.00344563 -8.92937e-07 7.4844e-27)
(0.00347713 -1.19752e-06 3.77928e-24)
(0.00351755 -1.47686e-06 -1.34329e-25)
(0.00356596 -1.7479e-06 -3.25233e-24)
(0.00362202 -2.00198e-06 0)
(0.00368506 -2.24089e-06 0)
(0.00375434 -2.45577e-06 0)
(0.0038291 -2.65843e-06 -1.3652e-23)
(0.00390855 -2.8304e-06 -1.53214e-23)
(0.0039919 -2.98965e-06 2.58917e-25)
(0.00407793 -3.09122e-06 5.47801e-25)
(0.00416549 -3.17401e-06 -5.44913e-25)
(0.00425421 -3.2286e-06 6.66169e-26)
(0.00434168 -3.18955e-06 -8.25203e-26)
(0.00442769 -3.19117e-06 -1.5769e-23)
(0.00451096 -3.00788e-06 4.48076e-25)
(0.00458708 -2.7664e-06 -1.09826e-23)
(0.0046572 -2.53492e-06 0)
(0.0047339 -2.80935e-06 3.64605e-26)
(0.00796295 -4.17967e-06 -3.69956e-27)
(0.00802283 -4.6937e-06 -1.04359e-25)
(0.00809925 -3.16772e-06 -4.91191e-24)
(0.00815011 -2.3706e-06 -2.98767e-23)
(0.00820089 -1.32218e-06 2.30522e-23)
(0.00823194 -1.74247e-07 -1.47793e-24)
(0.00824996 7.07121e-07 0)
(0.00825511 1.65706e-06 0)
(0.00824611 2.50517e-06 1.47525e-22)
(0.00822545 3.25853e-06 -6.34215e-24)
(0.00819411 3.91257e-06 -2.29065e-22)
(0.00815348 4.47482e-06 -2.72043e-22)
(0.00810465 4.93348e-06 1.64617e-24)
(0.00804976 5.28504e-06 -3.49199e-22)
(0.00798997 5.55093e-06 4.6841e-22)
(0.00792674 5.70179e-06 -2.31347e-23)
(0.00786143 5.80226e-06 2.53168e-22)
(0.00779469 5.8015e-06 5.25053e-23)
(0.00772799 5.75496e-06 0)
(0.00766193 5.64347e-06 4.44395e-22)
(0.00759762 5.48443e-06 -4.63984e-22)
(0.00753525 5.28931e-06 0)
(0.00747539 5.064e-06 0)
(0.00741848 4.81514e-06 0)
(0.00736497 4.54542e-06 -2.79125e-22)
(0.00731478 4.25993e-06 0)
(0.00726809 3.97532e-06 -1.81879e-22)
(0.00722493 3.67997e-06 1.84285e-22)
(0.00718526 3.39362e-06 -2.99201e-22)
(0.00714925 3.10662e-06 -7.56168e-23)
(0.00711678 2.8272e-06 -9.53852e-23)
(0.0070878 2.55498e-06 9.58987e-23)
(0.00706218 2.29412e-06 3.27686e-22)
(0.00703978 2.04363e-06 -3.86308e-23)
(0.00702049 1.80566e-06 9.6681e-23)
(0.00700405 1.57832e-06 1.92907e-23)
(0.00699023 1.3684e-06 -9.67908e-24)
(0.00697904 1.16929e-06 2.87574e-23)
(0.00697029 9.83953e-07 0)
(0.00696372 8.07158e-07 -7.57549e-23)
(0.00695905 6.47672e-07 -9.34492e-24)
(0.00695639 5.04887e-07 9.33913e-24)
(0.00695553 3.67645e-07 -1.83816e-23)
(0.00695638 2.48987e-07 0)
(0.00695886 1.33388e-07 3.57975e-23)
(0.00696261 3.3981e-08 -2.18651e-24)
(0.00696752 -5.6492e-08 2.1843e-24)
(0.00697343 -1.3336e-07 3.20303e-24)
(0.00698017 -2.01111e-07 -7.30057e-24)
(0.00698758 -2.55467e-07 -5.08937e-25)
(0.00699546 -2.97261e-07 8.26125e-24)
(0.00700367 -3.26076e-07 0)
(0.00701203 -3.41409e-07 -1.88483e-24)
(0.0070202 -3.40039e-07 1.29901e-23)
(0.00702796 -3.21866e-07 -1.81359e-23)
(0.00703497 -2.81268e-07 -5.96733e-23)
(0.00704086 -2.15957e-07 1.03784e-23)
(0.00704516 -1.08526e-07 6.70036e-24)
(0.00704709 4.73765e-08 -3.17303e-23)
(0.00704601 2.62255e-07 2.29304e-25)
(0.00704107 5.32638e-07 -9.42814e-23)
(0.00703105 8.8368e-07 9.09688e-23)
(0.00701485 1.30103e-06 1.61622e-23)
(0.00699105 1.79507e-06 7.23534e-23)
(0.00695838 2.36253e-06 7.90094e-23)
(0.00691607 2.97038e-06 8.40852e-23)
(0.00686345 3.58821e-06 -1.77139e-23)
(0.0068004 4.16743e-06 8.6133e-24)
(0.00672757 4.65401e-06 -1.24861e-22)
(0.0066468 4.97838e-06 1.5103e-23)
(0.00656069 5.09231e-06 2.67824e-23)
(0.00647272 4.95521e-06 -1.28492e-23)
(0.00638689 4.56514e-06 1.04761e-23)
(0.00630722 3.93771e-06 -1.98007e-23)
(0.00623747 3.11486e-06 9.31319e-24)
(0.00618063 2.15477e-06 0)
(0.00613873 1.1197e-06 -5.07385e-23)
(0.00611292 4.86708e-08 8.29926e-23)
(0.00610354 -9.99762e-07 -4.87706e-23)
(0.00611041 -2.04216e-06 -4.76361e-23)
(0.00613301 -2.99779e-06 2.89796e-24)
(0.0061702 -3.93264e-06 -6.6995e-24)
(0.00622154 -4.78378e-06 1.35417e-25)
(0.00628551 -5.58075e-06 1.63337e-23)
(0.00636132 -6.30715e-06 2.74273e-23)
(0.0064477 -6.96324e-06 -3.85204e-23)
(0.00654336 -7.53274e-06 0)
(0.0066469 -8.03664e-06 9.9891e-24)
(0.00675701 -8.43876e-06 1.88259e-23)
(0.0068722 -8.76827e-06 -6.3588e-23)
(0.00699062 -8.94353e-06 -7.0664e-23)
(0.00711043 -9.03531e-06 5.41325e-25)
(0.00723086 -9.02751e-06 -6.90314e-23)
(0.00734906 -8.80911e-06 0)
(0.00746436 -8.61596e-06 1.58949e-23)
(0.00757543 -8.0306e-06 -8.75827e-25)
(0.0076774 -7.36383e-06 1.05315e-23)
(0.00777469 -6.80479e-06 1.4307e-25)
(0.00787833 -7.01159e-06 7.09136e-26)
(0.0110867 -8.02331e-06 2.7417e-27)
(0.0111549 -8.21912e-06 0)
(0.0112449 -5.74134e-06 3.54716e-23)
(0.0113102 -4.09594e-06 2.88486e-23)
(0.0113761 -2.20824e-06 3.57034e-25)
(0.0114208 -1.22606e-07 -2.04785e-22)
(0.0114495 1.58211e-06 0)
(0.0114631 3.34776e-06 0)
(0.0114599 4.9557e-06 -5.34828e-22)
(0.0114426 6.38683e-06 -1.36079e-23)
(0.0114124 7.64102e-06 -2.0254e-22)
(0.0113711 8.71426e-06 2.59459e-22)
(0.01132 9.60349e-06 -5.84534e-22)
(0.0112615 1.02929e-05 3.09043e-22)
(0.0111971 1.08145e-05 -3.33449e-22)
(0.0111284 1.11328e-05 7.13493e-22)
(0.011057 1.13335e-05 -3.78897e-22)
(0.0109838 1.13559e-05 8.5072e-22)
(0.0109106 1.12759e-05 -5.12244e-23)
(0.0108378 1.10786e-05 -4.93109e-22)
(0.010767 1.07833e-05 5.67474e-22)
(0.0106982 1.04159e-05 -5.7711e-23)
(0.0106322 9.98615e-06 6.11174e-23)
(0.0105695 9.51022e-06 -6.11015e-23)
(0.0105105 8.98801e-06 1.88999e-22)
(0.0104552 8.43499e-06 6.37479e-23)
(0.0104038 7.87676e-06 2.94204e-22)
(0.0103564 7.29641e-06 -5.28654e-22)
(0.010313 6.72927e-06 2.67464e-22)
(0.0102736 6.15929e-06 5.0466e-22)
(0.0102383 5.60086e-06 -5.74764e-22)
(0.0102069 5.05463e-06 3.38156e-23)
(0.0101793 4.52762e-06 -2.71514e-22)
(0.0101554 4.02e-06 0)
(0.010135 3.53535e-06 -2.70573e-22)
(0.0101179 3.06968e-06 -1.68168e-23)
(0.0101039 2.63711e-06 5.73218e-26)
(0.0100929 2.22479e-06 -2.3269e-22)
(0.0100847 1.83797e-06 -2.80126e-22)
(0.0100792 1.46752e-06 1.95724e-22)
(0.010076 1.13134e-06 8.02559e-24)
(0.0100752 8.23254e-07 -7.99915e-24)
(0.0100765 5.2889e-07 0)
(0.0100799 2.68807e-07 0)
(0.0100854 1.6201e-08 -3.04382e-23)
(0.0100925 -2.05953e-07 0)
(0.0101011 -4.09305e-07 5.87232e-23)
(0.010111 -5.8722e-07 0)
(0.0101222 -7.45458e-07 7.04825e-24)
(0.0101343 -8.77965e-07 2.15452e-25)
(0.0101472 -9.85195e-07 -8.40164e-24)
(0.0101607 -1.0651e-06 4.91002e-24)
(0.0101746 -1.1176e-06 -3.24156e-24)
(0.0101885 -1.13494e-06 0)
(0.0102021 -1.11562e-06 -5.97713e-24)
(0.0102151 -1.04892e-06 5.88463e-23)
(0.0102269 -9.27804e-07 -5.79192e-24)
(0.010237 -7.24947e-07 0)
(0.0102448 -4.25275e-07 -7.48676e-23)
(0.0102493 -6.2697e-09 -8.27146e-23)
(0.0102497 5.2817e-07 6.91796e-23)
(0.0102446 1.22272e-06 -6.68965e-23)
(0.0102327 2.06022e-06 1.45863e-22)
(0.0102126 3.05539e-06 -7.90029e-23)
(0.0101827 4.20559e-06 -6.69242e-23)
(0.0101418 5.45446e-06 -4.83004e-23)
(0.0100889 6.7481e-06 -1.56177e-23)
(0.0100231 7.99553e-06 1.38712e-23)
(0.00994461 9.09375e-06 -1.35409e-22)
(0.00985442 9.90398e-06 2.16447e-22)
(0.0097546 1.0316e-05 1.13065e-23)
(0.00964843 1.02303e-05 -1.14696e-23)
(0.00954021 9.61075e-06 1.89028e-23)
(0.00943486 8.46415e-06 -1.91598e-23)
(0.00933757 6.85866e-06 1.49384e-23)
(0.00925302 4.90859e-06 -1.50951e-23)
(0.00918487 2.74884e-06 1.53545e-22)
(0.0091356 4.85107e-07 -1.58892e-22)
(0.00910653 -1.75709e-06 1.76565e-22)
(0.00909791 -3.96559e-06 4.54716e-23)
(0.00910945 -6.00808e-06 5.95889e-23)
(0.00913981 -7.96241e-06 2.94899e-23)
(0.00918842 -9.73657e-06 -1.1771e-24)
(0.00925334 -1.13658e-05 -1.2595e-23)
(0.00933339 -1.2824e-05 2.45172e-23)
(0.00942674 -1.41079e-05 3.53171e-23)
(0.00953155 -1.51958e-05 -8.92687e-23)
(0.00964582 -1.61157e-05 -1.05013e-22)
(0.00976773 -1.68145e-05 -3.83415e-24)
(0.00989512 -1.73301e-05 7.12527e-23)
(0.0100257 -1.75535e-05 6.21041e-23)
(0.010157 -1.75778e-05 0)
(0.010288 -1.73912e-05 1.97806e-22)
(0.0104158 -1.68469e-05 -8.20145e-25)
(0.0105394 -1.62531e-05 9.38163e-25)
(0.0106581 -1.50689e-05 7.16129e-25)
(0.0107678 -1.37727e-05 -7.11521e-25)
(0.0108755 -1.26394e-05 4.47972e-29)
(0.0109893 -1.24063e-05 -3.39847e-26)
(0.0140815 -1.24081e-05 1.11089e-28)
(0.0141445 -1.17389e-05 -1.85205e-25)
(0.0142338 -8.17572e-06 1.61753e-25)
(0.0143008 -5.35755e-06 0)
(0.014369 -2.4135e-06 1.43411e-22)
(0.0144156 8.06283e-07 1.86336e-22)
(0.0144441 3.58614e-06 0)
(0.014456 6.36092e-06 0)
(0.014449 8.91855e-06 3.22533e-22)
(0.0144262 1.1196e-05 3.81114e-22)
(0.014389 1.3199e-05 4.02559e-22)
(0.0143392 1.4905e-05 0)
(0.0142784 1.63263e-05 1.00721e-21)
(0.0142093 1.74301e-05 0)
(0.0141333 1.8259e-05 5.85683e-22)
(0.0140523 1.87798e-05 -6.23264e-22)
(0.0139682 1.90877e-05 -5.73937e-22)
(0.0138818 1.91294e-05 -7.75104e-22)
(0.0137951 1.89908e-05 -7.20699e-22)
(0.0137087 1.86691e-05 0)
(0.0136242 1.81833e-05 -7.71589e-22)
(0.0135419 1.75778e-05 0)
(0.0134624 1.68679e-05 8.11466e-22)
(0.0133864 1.60815e-05 8.27442e-22)
(0.0133143 1.52175e-05 -5.30597e-23)
(0.0132462 1.43043e-05 -9.34912e-25)
(0.0131825 1.33744e-05 5.33608e-23)
(0.0131231 1.24103e-05 -4.33596e-22)
(0.0130681 1.14614e-05 -5.47411e-23)
(0.0130177 1.05082e-05 -3.82836e-22)
(0.0129718 9.57114e-06 4.65087e-22)
(0.0129303 8.65304e-06 -2.72552e-23)
(0.0128931 7.76364e-06 -2.72781e-23)
(0.0128602 6.90442e-06 2.71072e-23)
(0.0128313 6.08022e-06 2.15766e-22)
(0.0128063 5.28586e-06 4.28318e-22)
(0.012785 4.54199e-06 0)
(0.0127674 3.83069e-06 2.23249e-22)
(0.0127532 3.15937e-06 1.94752e-22)
(0.0127423 2.51556e-06 -8.98211e-23)
(0.0127345 1.92448e-06 -1.27013e-23)
(0.0127297 1.37443e-06 1.23993e-23)
(0.0127277 8.50013e-07 -1.23345e-23)
(0.0127285 3.76381e-07 0)
(0.0127319 -8.21792e-08 0)
(0.0127377 -4.95005e-07 0)
(0.0127458 -8.76913e-07 -4.5596e-23)
(0.0127559 -1.22034e-06 0)
(0.0127679 -1.53128e-06 2.25175e-23)
(0.0127816 -1.80298e-06 -6.73584e-25)
(0.0127969 -2.03489e-06 1.28817e-24)
(0.0128136 -2.223e-06 1.22628e-24)
(0.0128314 -2.36778e-06 2.38367e-24)
(0.01285 -2.45656e-06 -4.87746e-24)
(0.0128692 -2.48571e-06 -7.48972e-23)
(0.0128885 -2.43977e-06 0)
(0.0129076 -2.30752e-06 -8.67275e-24)
(0.012926 -2.05657e-06 2.8165e-25)
(0.012943 -1.66329e-06 7.43592e-23)
(0.0129583 -1.09196e-06 6.36855e-23)
(0.0129709 -3.46626e-07 -7.51972e-24)
(0.0129799 6.33546e-07 -6.91467e-24)
(0.0129843 1.83119e-06 -9.90704e-23)
(0.012983 3.26357e-06 1.32891e-23)
(0.0129749 4.93059e-06 -1.33892e-23)
(0.012959 6.75888e-06 -1.21208e-23)
(0.0129345 8.67633e-06 2.14272e-22)
(0.0129004 1.05576e-05 -1.16987e-23)
(0.0128565 1.22605e-05 1.71783e-22)
(0.012803 1.35858e-05 -1.42725e-22)
(0.0127407 1.43645e-05 -1.68655e-24)
(0.012671 1.44367e-05 -1.86111e-23)
(0.0125965 1.37204e-05 0)
(0.0125202 1.2196e-05 -2.53461e-22)
(0.0124459 9.93335e-06 1.43817e-23)
(0.0123778 7.07675e-06 0)
(0.0123195 3.81299e-06 -8.16514e-23)
(0.0122743 3.06955e-07 6.80285e-23)
(0.0122448 -3.24939e-06 -1.08381e-22)
(0.0122325 -6.79333e-06 0)
(0.0122385 -1.01355e-05 -5.82106e-23)
(0.0122624 -1.33296e-05 -2.32756e-23)
(0.0123042 -1.62507e-05 2.80284e-24)
(0.0123626 -1.89154e-05 0)
(0.0124365 -2.12822e-05 -4.84619e-23)
(0.0125243 -2.33367e-05 -6.14347e-23)
(0.0126239 -2.50468e-05 8.80636e-23)
(0.0127331 -2.64387e-05 1.88827e-22)
(0.0128498 -2.74468e-05 -1.05506e-22)
(0.0129714 -2.81121e-05 -3.53593e-24)
(0.0130954 -2.83136e-05 1.23181e-22)
(0.013219 -2.81525e-05 -1.26018e-22)
(0.013341 -2.76348e-05 -1.22276e-22)
(0.0134588 -2.65948e-05 0)
(0.0135714 -2.53786e-05 -1.06453e-22)
(0.0136791 -2.3425e-05 -9.0508e-25)
(0.0137789 -2.12893e-05 -6.65259e-25)
(0.0138792 -1.92935e-05 -4.18532e-29)
(0.0139863 -1.82484e-05 -3.16435e-26)
(0.0167957 -1.64286e-05 -9.94813e-29)
(0.0168382 -1.43908e-05 9.85884e-29)
(0.0169088 -9.63074e-06 -2.98767e-23)
(0.0169591 -5.3715e-06 -9.04545e-23)
(0.0170099 -1.19246e-06 1.26586e-22)
(0.017039 3.30773e-06 -3.27538e-22)
(0.0170484 7.35351e-06 0)
(0.01704 1.12708e-05 4.80782e-22)
(0.0170119 1.49022e-05 5.67638e-22)
(0.0169668 1.81288e-05 -3.26903e-22)
(0.0169067 2.09626e-05 -7.10142e-22)
(0.0168335 2.33607e-05 -8.0859e-22)
(0.0167492 2.53534e-05 -1.25346e-21)
(0.0166564 2.68929e-05 0)
(0.0165568 2.80326e-05 4.90299e-22)
(0.0164525 2.87481e-05 6.6842e-23)
(0.0163453 2.9135e-05 4.79442e-22)
(0.0162364 2.9162e-05 -7.29129e-23)
(0.0161276 2.89155e-05 7.39281e-22)
(0.0160199 2.84133e-05 -1.29612e-21)
(0.0159146 2.76747e-05 6.27562e-22)
(0.0158122 2.67622e-05 -8.14234e-23)
(0.0157135 2.56984e-05 -5.73836e-22)
(0.0156191 2.45228e-05 -1.24548e-21)
(0.0155293 2.32372e-05 -8.32231e-23)
(0.0154444 2.18822e-05 6.79526e-22)
(0.0153647 2.04956e-05 -4.30652e-23)
(0.0152902 1.90642e-05 7.30185e-22)
(0.015221 1.76472e-05 -6.89118e-22)
(0.0151572 1.62256e-05 -4.32459e-23)
(0.0150987 1.48248e-05 -6.45562e-22)
(0.0150455 1.34502e-05 0)
(0.0149975 1.21139e-05 0)
(0.0149545 1.08196e-05 2.12169e-23)
(0.0149164 9.57329e-06 -1.06591e-26)
(0.014883 8.36913e-06 -6.67825e-22)
(0.0148541 7.2328e-06 -2.06874e-23)
(0.0148296 6.14272e-06 3.26856e-22)
(0.0148094 5.10738e-06 -3.22861e-22)
(0.0147933 4.11257e-06 0)
(0.014781 3.18783e-06 1.4726e-22)
(0.0147725 2.31729e-06 9.71075e-24)
(0.0147676 1.48625e-06 9.45386e-24)
(0.0147662 7.2171e-07 -9.403e-24)
(0.0147682 -1.78877e-08 -4.55728e-24)
(0.0147733 -6.97498e-07 9.0042e-24)
(0.0147814 -1.3337e-06 6.618e-23)
(0.0147923 -1.9188e-06 2.1422e-24)
(0.0148059 -2.45852e-06 -2.13402e-24)
(0.014822 -2.94617e-06 -5.11539e-25)
(0.0148405 -3.38011e-06 5.10035e-25)
(0.0148612 -3.75461e-06 0)
(0.0148838 -4.07069e-06 6.1433e-23)
(0.0149081 -4.31185e-06 0)
(0.014934 -4.47253e-06 5.81678e-23)
(0.0149609 -4.53421e-06 -1.13027e-22)
(0.0149887 -4.48358e-06 0)
(0.015017 -4.28761e-06 -1.06292e-22)
(0.0150454 -3.91799e-06 6.31414e-24)
(0.0150736 -3.32981e-06 -6.3273e-24)
(0.015101 -2.52735e-06 -1.91897e-22)
(0.015127 -1.44087e-06 -1.84953e-22)
(0.0151511 -8.78689e-08 0)
(0.0151725 1.54794e-06 1.04264e-23)
(0.0151907 3.4688e-06 -1.84603e-22)
(0.0152052 5.59201e-06 1.0094e-23)
(0.0152155 7.83638e-06 -4.68559e-22)
(0.0152213 1.00591e-05 3.57498e-23)
(0.0152224 1.21012e-05 2.54222e-22)
(0.015219 1.37308e-05 1.54166e-23)
(0.0152113 1.47435e-05 -1.57828e-23)
(0.0152002 1.4937e-05 0)
(0.0151865 1.41856e-05 1.97211e-22)
(0.0151716 1.24324e-05 2.15875e-22)
(0.0151573 9.72443e-06 -1.15917e-23)
(0.0151454 6.20434e-06 0)
(0.0151379 2.08053e-06 -2.82074e-22)
(0.0151368 -2.44298e-06 2.80205e-23)
(0.015144 -7.1256e-06 1.5751e-22)
(0.0151611 -1.18503e-05 1.69146e-23)
(0.0151893 -1.63834e-05 -7.09174e-24)
(0.015229 -2.0729e-05 -1.4837e-24)
(0.0152809 -2.47373e-05 3.90708e-24)
(0.0153444 -2.83906e-05 0)
(0.015419 -3.16224e-05 7.16329e-23)
(0.0155037 -3.43959e-05 6.66061e-23)
(0.0155969 -3.66641e-05 -8.96736e-24)
(0.0156966 -3.84413e-05 -8.0823e-23)
(0.015801 -3.96541e-05 9.03665e-23)
(0.0159078 -4.03371e-05 6.28988e-24)
(0.0160146 -4.03697e-05 -1.09988e-22)
(0.0161186 -3.98455e-05 3.35912e-22)
(0.0162188 -3.87992e-05 0)
(0.0163132 -3.70656e-05 0)
(0.0164009 -3.49981e-05 9.73489e-23)
(0.0164835 -3.2107e-05 -8.44809e-23)
(0.0165585 -2.89156e-05 -6.00194e-25)
(0.0166355 -2.57839e-05 3.77535e-29)
(0.0167199 -2.36058e-05 -2.86612e-26)
(0.019096 -1.92045e-05 0)
(0.0191086 -1.54328e-05 -2.25348e-23)
(0.0191481 -9.38962e-06 1.42567e-25)
(0.0191686 -3.51612e-06 -7.85713e-23)
(0.0191881 2.02615e-06 -4.34457e-22)
(0.0191861 7.9e-06 2.79028e-22)
(0.0191642 1.33254e-05 3.45605e-22)
(0.0191243 1.84614e-05 -4.10016e-22)
(0.0190651 2.32292e-05 -4.72171e-22)
(0.0189894 2.74518e-05 -1.77535e-23)
(0.0188992 3.11469e-05 6.12534e-22)
(0.0187969 3.42516e-05 6.52968e-22)
(0.0186845 3.68152e-05 7.54028e-22)
(0.0185646 3.87779e-05 -4.55796e-23)
(0.0184391 4.02025e-05 -8.07501e-22)
(0.0183101 4.10793e-05 -8.51504e-22)
(0.0181795 4.14999e-05 -8.91896e-22)
(0.0180484 4.14616e-05 5.93915e-23)
(0.0179188 4.10479e-05 -5.86799e-23)
(0.0177914 4.02994e-05 1.05221e-21)
(0.0176676 3.9237e-05 9.51644e-22)
(0.0175479 3.79408e-05 0)
(0.0174331 3.6442e-05 0)
(0.0173235 3.47919e-05 5.33744e-22)
(0.0172197 3.29983e-05 -6.80829e-23)
(0.0171217 3.11129e-05 -5.45148e-22)
(0.01703 2.91786e-05 1.02256e-22)
(0.0169444 2.71893e-05 1.06383e-21)
(0.016865 2.52118e-05 5.15328e-22)
(0.0167919 2.32301e-05 6.18292e-22)
(0.016725 2.12741e-05 1.02856e-21)
(0.0166642 1.93524e-05 5.46418e-22)
(0.0166093 1.74795e-05 5.77772e-22)
(0.0165602 1.56611e-05 -5.74183e-22)
(0.0165168 1.39045e-05 3.35163e-23)
(0.0164788 1.22041e-05 7.8088e-22)
(0.016446 1.05886e-05 1.64733e-23)
(0.0164183 9.03508e-06 -2.60363e-22)
(0.0163956 7.55268e-06 4.98511e-22)
(0.0163775 6.12595e-06 -2.38046e-22)
(0.0163641 4.78621e-06 -1.25249e-22)
(0.016355 3.51483e-06 2.39161e-22)
(0.0163502 2.29856e-06 1.51843e-23)
(0.0163495 1.16398e-06 -7.51447e-24)
(0.0163529 6.66183e-08 1.17468e-22)
(0.0163599 -9.5697e-07 -1.1535e-22)
(0.0163706 -1.9242e-06 -5.65853e-23)
(0.0163849 -2.82789e-06 0)
(0.0164024 -3.67333e-06 -4.11665e-23)
(0.0164232 -4.45442e-06 4.19392e-25)
(0.0164471 -5.16872e-06 2.59878e-23)
(0.0164738 -5.80939e-06 0)
(0.0165033 -6.378e-06 3.81314e-27)
(0.0165353 -6.85579e-06 0)
(0.0165696 -7.23629e-06 0)
(0.0166061 -7.49993e-06 1.83e-22)
(0.0166444 -7.63206e-06 8.89259e-23)
(0.0166845 -7.6008e-06 8.631e-23)
(0.0167258 -7.37647e-06 1.67355e-22)
(0.0167684 -6.91104e-06 1.52072e-22)
(0.016812 -6.20967e-06 3.23193e-22)
(0.0168561 -5.19959e-06 1.41927e-22)
(0.0169005 -3.89915e-06 2.91935e-22)
(0.0169449 -2.29637e-06 2.89563e-22)
(0.016989 -3.90864e-07 4.0433e-22)
(0.0170327 1.72728e-06 2.58484e-22)
(0.0170757 3.96948e-06 2.47154e-22)
(0.017118 6.18228e-06 -1.42385e-23)
(0.0171595 8.19975e-06 -4.33626e-22)
(0.0172002 9.77738e-06 -2.12066e-22)
(0.0172403 1.06999e-05 0)
(0.0172801 1.07543e-05 -3.83944e-22)
(0.0173197 9.80276e-06 -5.26839e-22)
(0.0173596 7.77786e-06 2.09639e-23)
(0.0174005 4.71502e-06 1.66198e-23)
(0.0174429 7.45502e-07 -2.49244e-24)
(0.0174878 -3.92875e-06 2.04437e-22)
(0.0175358 -9.09975e-06 0)
(0.0175881 -1.45185e-05 -1.48432e-22)
(0.0176451 -2.0036e-05 -5.79153e-24)
(0.0177079 -2.54029e-05 2.39484e-24)
(0.0177762 -3.05683e-05 4.83381e-24)
(0.0178507 -3.53655e-05 -3.28885e-24)
(0.0179308 -3.97303e-05 3.53153e-23)
(0.0180163 -4.35739e-05 -1.33583e-22)
(0.0181063 -4.6832e-05 -6.80208e-24)
(0.0181994 -4.94366e-05 1.29564e-22)
(0.0182941 -5.13798e-05 -1.46387e-22)
(0.0183889 -5.2582e-05 0)
(0.0184818 -5.30644e-05 -2.89829e-24)
(0.0185709 -5.2718e-05 -1.07501e-25)
(0.0186537 -5.1617e-05 -1.91359e-22)
(0.0187296 -4.98283e-05 0)
(0.0187973 -4.72049e-05 1.84349e-22)
(0.0188562 -4.40795e-05 -1.2499e-24)
(0.0189085 -4.0092e-05 7.57851e-23)
(0.0189526 -3.56541e-05 0)
(0.0189983 -3.11718e-05 0)
(0.0190509 -2.76187e-05 2.50559e-26)
(0.0209661 -2.02092e-05 -4.00318e-26)
(0.0209469 -1.44859e-05 1.11677e-25)
(0.020952 -7.08543e-06 -8.69688e-23)
(0.0209388 4.98853e-07 2.69331e-22)
(0.0209231 7.49057e-06 1.86062e-22)
(0.0208866 1.47875e-05 -4.75918e-22)
(0.020831 2.16382e-05 -2.91697e-22)
(0.0207583 2.80176e-05 6.87648e-22)
(0.0206675 3.39283e-05 -8.05078e-22)
(0.0205617 3.91395e-05 9.06325e-22)
(0.0204429 4.36739e-05 1.63384e-23)
(0.0203137 4.74517e-05 -5.16097e-23)
(0.020176 5.0539e-05 3.49827e-23)
(0.0200326 5.28695e-05 0)
(0.0198853 5.45148e-05 -1.37213e-21)
(0.0197361 5.54831e-05 7.41877e-22)
(0.0195869 5.58608e-05 7.31353e-22)
(0.0194387 5.56772e-05 4.86164e-23)
(0.0192935 5.50118e-05 1.47251e-21)
(0.0191518 5.39307e-05 4.94661e-23)
(0.0190151 5.24585e-05 -8.27391e-22)
(0.0188836 5.06911e-05 8.43992e-22)
(0.0187581 4.86691e-05 0)
(0.018639 4.64559e-05 0)
(0.0185265 4.40666e-05 0)
(0.0184209 4.15637e-05 0)
(0.0183223 3.8995e-05 0)
(0.0182308 3.63636e-05 -9.51801e-22)
(0.0181462 3.37409e-05 5.57628e-23)
(0.0180687 3.11161e-05 -4.48808e-22)
(0.017998 2.8523e-05 -4.76316e-22)
(0.0179341 2.59733e-05 -1.31303e-21)
(0.0178767 2.34842e-05 -4.45144e-22)
(0.0178258 2.10637e-05 8.85454e-22)
(0.017781 1.87202e-05 0)
(0.0177423 1.64485e-05 -4.36446e-22)
(0.0177093 1.42793e-05 4.32615e-22)
(0.0176821 1.21891e-05 4.28406e-22)
(0.0176602 1.01872e-05 -2.25118e-22)
(0.0176437 8.25763e-06 2.22596e-22)
(0.0176321 6.43166e-06 1.28678e-23)
(0.0176256 4.68888e-06 -1.28139e-23)
(0.0176238 3.01763e-06 -2.01194e-22)
(0.0176266 1.44251e-06 6.1527e-24)
(0.0176339 -8.1813e-08 -1.097e-22)
(0.0176455 -1.51935e-06 1.01925e-22)
(0.0176613 -2.88777e-06 0)
(0.0176811 -4.18099e-06 -1.43224e-24)
(0.0177049 -5.4038e-06 2.41103e-23)
(0.0177325 -6.55128e-06 -6.94645e-25)
(0.0177637 -7.62051e-06 2.06501e-27)
(0.0177985 -8.60429e-06 -2.63042e-24)
(0.0178367 -9.50505e-06 -4.15548e-23)
(0.0178781 -1.03032e-05 2.57231e-24)
(0.0179227 -1.09923e-05 4.88622e-24)
(0.0179703 -1.15533e-05 -8.21632e-23)
(0.0180207 -1.19711e-05 -8.44738e-23)
(0.0180738 -1.2215e-05 9.29347e-24)
(0.0181295 -1.22558e-05 -1.50839e-22)
(0.0181877 -1.20466e-05 -1.29071e-22)
(0.0182482 -1.15947e-05 -4.00607e-22)
(0.018311 -1.08282e-05 0)
(0.0183759 -9.76508e-06 -2.49404e-22)
(0.0184427 -8.39764e-06 -2.40444e-22)
(0.0185115 -6.72781e-06 -4.62798e-22)
(0.0185822 -4.84944e-06 -2.22112e-22)
(0.0186547 -2.8547e-06 2.12766e-22)
(0.0187289 -9.00876e-07 0)
(0.0188047 8.46357e-07 1.9293e-22)
(0.018882 2.14107e-06 -1.82768e-22)
(0.0189607 2.76744e-06 -3.22963e-22)
(0.0190405 2.51311e-06 6.19811e-22)
(0.0191213 1.23761e-06 5.92578e-22)
(0.0192029 -1.12834e-06 0)
(0.0192852 -4.55391e-06 2.58649e-22)
(0.0193683 -8.91387e-06 -1.4588e-23)
(0.0194523 -1.40104e-05 0)
(0.0195374 -1.96318e-05 -1.57472e-22)
(0.019624 -2.55292e-05 -6.86532e-24)
(0.0197121 -3.15292e-05 2.07928e-24)
(0.0198021 -3.73877e-05 5.03071e-24)
(0.0198936 -4.30058e-05 -6.59281e-23)
(0.0199869 -4.82185e-05 -5.68656e-24)
(0.0200813 -5.29224e-05 -2.4047e-23)
(0.0201763 -5.70122e-05 5.26917e-23)
(0.0202711 -6.04e-05 5.76936e-24)
(0.0203643 -6.30037e-05 -1.10362e-22)
(0.0204547 -6.47925e-05 1.24952e-22)
(0.0205408 -6.56865e-05 0)
(0.020621 -6.56898e-05 3.09494e-22)
(0.0206936 -6.47108e-05 0)
(0.0207567 -6.27979e-05 0)
(0.0208099 -6.00485e-05 0)
(0.0208524 -5.63445e-05 -1.57786e-22)
(0.0208841 -5.19782e-05 -1.195e-24)
(0.0209073 -4.6747e-05 9.17001e-25)
(0.0209213 -4.09078e-05 -5.59282e-25)
(0.0209352 -3.49134e-05 -3.82225e-23)
(0.0209544 -2.98071e-05 -5.69529e-29)
(0.022463 -1.9266e-05 3.44508e-26)
(0.0224136 -1.14864e-05 1.64757e-23)
(0.0223856 -2.67649e-06 7.44057e-23)
(0.0223398 6.64611e-06 -2.29086e-22)
(0.0222903 1.51272e-05 1.41656e-24)
(0.0222213 2.38532e-05 4.00804e-22)
(0.0221346 3.21161e-05 -4.88931e-22)
(0.0220323 3.9716e-05 -5.82596e-22)
(0.0219139 4.67282e-05 6.68003e-22)
(0.0217823 5.28767e-05 -5.26566e-25)
(0.0216399 5.81885e-05 0)
(0.021489 6.25717e-05 8.71381e-22)
(0.0213318 6.61071e-05 2.90376e-23)
(0.0211706 6.87272e-05 1.00529e-21)
(0.0210074 7.05121e-05 1.13468e-21)
(0.020844 7.14892e-05 7.45822e-23)
(0.0206822 7.17411e-05 -1.28441e-21)
(0.020523 7.13289e-05 1.25833e-21)
(0.020368 7.03298e-05 -1.30132e-21)
(0.020218 6.88342e-05 1.339e-21)
(0.0200739 6.68724e-05 -1.37239e-21)
(0.0199362 6.45548e-05 -7.00783e-22)
(0.0198054 6.19318e-05 1.4714e-21)
(0.0196818 5.9078e-05 1.06118e-24)
(0.0195658 5.60177e-05 -4.52804e-23)
(0.0194573 5.28229e-05 0)
(0.0193566 4.95465e-05 0)
(0.0192635 4.62011e-05 -7.48916e-22)
(0.019178 4.28616e-05 -7.04361e-22)
(0.0191001 3.95235e-05 -9.40712e-23)
(0.0190296 3.62238e-05 4.69005e-23)
(0.0189663 3.29778e-05 7.52232e-22)
(0.01891 2.98047e-05 -2.3468e-23)
(0.0188605 2.67153e-05 -3.50379e-22)
(0.0188178 2.37186e-05 0)
(0.0187814 2.08105e-05 0)
(0.0187512 1.80224e-05 -7.56734e-22)
(0.0187271 1.53309e-05 -3.18459e-22)
(0.0187089 1.27452e-05 3.49253e-22)