/*--------------------------------*- C++ -*----------------------------------*\
| =========                 |                                                 |
| \\      /  F ield         | OpenFOAM: The Open Source CFD Toolbox           |
|  \\    /   O peration     | Version:  v1912                                 |
|   \\  /    A nd           | Website:  www.openfoam.com                      |
|    \\/     M anipulation  |                                                 |
\*---------------------------------------------------------------------------*/
FoamFile
{
    version     2.0;
    format      ascii;
    class       volScalarField;
    location    "10000";
    object      k;
}
// * * * * * * * * * * * * * * * * * * * * * * * * * * * * * * * * * * * * * //

dimensions      [0 2 -2 0 0 0 0];


internalField   nonuniform List<scalar> 
71770
(
0.00099003
0.00105252
0.00116888
0.00140978
0.00158516
0.00160412
0.00163443
0.00165913
0.00162303
0.00157529
0.00197705
0.00289929
0.000962298
0.000988395
0.000962748
6.81142
5.70417
0.00061407
0.00293903
0.0317322
0.0106296
0.00019227
0.000189665
0.0844653
1.77163
0.937145
2.97334
0.452306
0.202791
4.36998
0.000620452
0.00297511
0.0107615
0.0321266
9.95952
8.81479
8.38153
8.574
9.0331
9.34905
9.56011
9.13925
9.46311
9.68352
9.73918
8.67762
9.70109
9.83072
9.90143
6.89975
5.77426
7.75965
6.97655
7.84985
7.92891
8.48726
8.93444
9.23794
9.44078
7.05328
8.03722
7.17225
9.50563
9.17603
8.72028
9.42799
0.949748
1.79477
3.01063
3.05596
1.82574
4.42314
4.48027
4.556
9.93568
9.87323
9.83459
9.83613
5.84077
5.9182
6.04868
9.99796
9.44311
9.12315
9.68331
9.12175
9.39799
9.86287
9.79046
9.61477
9.5948
9.73956
9.63456
9.73161
9.77663
0.482223
3.24115
0.0109103
0.0873809
0.209743
0.216507
0.509707
1.04929
1.96124
0.090231
4.68974
0.00301611
0.000641742
0.000195435
0.0030781
0.0111342
0.0332384
0.00066378
0.00317942
0.0114995
0.0343272
8.11755
7.50592
7.33313
6.49268
6.73776
6.28824
9.21409
7.74437
8.23724
8.75259
8.44459
8.90819
2.07347
3.38408
4.83557
3.52547
4.97904
5.18575
3.70336
0.547191
1.12004
0.0955954
0.229222
0.103031
0.246763
2.18416
2.31145
5.41279
6.1724
3.88942
2.44166
0.000205797
0.00022514
0.00337026
0.0121876
0.0363773
0.000705249
0.000262451
0.0131438
0.000822068
0.0140726
0.00389417
0.000290974
0.00363637
0.000765485
0.039224
0.110268
0.0419911
0.281589
0.263879
0.583897
1.18959
0.62252
1.26517
0.2996
0.66174
1.34197
0.00415586
0.0150215
0.117699
0.0448234
0.000299019
0.000874637
0.000928607
0.000308669
0.00442286
0.125267
0.131989
0.315599
0.0159891
0.0477102
0.0168483
0.0502739
0.00465992
0.000976458
9.37062
9.11207
9.57288
7.98598
8.2222
6.96998
8.67742
8.92065
9.34453
9.52612
9.68145
7.18493
5.80188
1.54708
1.71817
4.40615
2.79459
3.05913
4.05576
0.696576
1.41015
2.55735
5.61962
0.000316945
1.46378
2.65113
4.19588
0.72342
0.327781
0.765553
0.137077
0.0522091
0.017496
0.000315977
0.00101072
0.00483797
0.145147
0.347029
0.1639
0.858293
0.390998
0.0185263
0.055285
0.0051214
0.000315714
0.00106555
9.92112
9.7133
9.9813
9.98732
10.378
10.0337
8.56975
9.70939
9.28792
10.1579
9.58364
8.96969
8.8895
7.49899
10.3946
10.4349
4.7438
1.86548
4.92238
3.2505
6.07046
6.44325
6.54818
7.88524
7.89057
10.2931
10.4074
10.4216
10.7251
10.7489
10.5857
9.73134
10.2785
10.3835
0.945945
4.03296
7.56873
5.89012
2.38528
1.23247
8.85401
0.0624829
0.0209456
0.000382762
0.0012112
0.00579267
0.00137604
0.000518573
0.43444
0.182772
0.0697755
0.2412
0.571202
0.0234038
0.00648033
0.0922048
0.0309385
0.458484
0.967684
0.205581
0.467566
0.996173
1.87337
3.12177
0.0856316
0.0325708
8.69543
7.2635
8.09888
9.73397
9.9594
10.3192
0.000190475
0.000628582
0.00322202
9.05736
9.56676
8.34239
7.33808
0.120798
0.0407001
0.0113219
0.00251477
0.00137948
0.726797
0.3131
2.76184
1.51066
4.36376
5.98538
0.00866822
0.00856154
0.0017994
0.000605149
49.5393
40.2096
50.0256
38.5592
37.9968
44.1599
43.4572
40.625
38.4795
38.0181
37.2772
33.4434
53.1626
41.7337
40.3949
38.7048
36.8425
37.4716
35.6426
28.3354
39.7158
85.1824
47.4605
42.2843
40.3448
36.2394
37.5153
34.9245
34.1431
26.9033
45.8114
65.1126
44.1333
43.5729
43.8277
39.8497
42.3626
36.091
36.4949
38.5652
35.2301
33.4103
32.4559
49.8384
61.8312
47.0475
45.939
43.632
46.3862
41.2811
42.8878
36.0322
38.3431
35.0972
33.6168
31.7883
30.8156
27.0089
67.391
45.6977
45.8594
48.6286
46.1284
48.7168
41.0147
44.3651
36.2159
37.1333
39.6346
34.4073
32.9725
32.1004
30.4227
29.4215
25.5489
55.3339
50.3346
48.2885
52.7015
47.7036
52.1061
42.2649
46.5766
43.8846
35.2577
36.6226
39.1403
34.5021
33.6436
31.2467
29.2532
28.155
60.1599
11.3413
90.0804
49.6077
52.1097
48.8259
56.2645
51.2589
55.7315
41.854
47.5657
45.3697
35.3762
37.3848
40.2996
34.0098
31.1818
29.9776
28.268
26.8271
62.8283
7.53256
62.7576
55.7757
52.2527
60.0366
53.1116
58.3847
43.0774
49.3734
45.1097
36.8943
39.6536
33.4836
31.9559
29.4698
27.7225
26.9994
26.2164
78.2082
30.1662
55.6209
60.0077
54.6249
62.4907
61.5615
51.5874
55.8962
57.8934
61.2568
42.7808
48.8861
46.7215
35.44
38.2628
40.7834
34.1135
31.988
29.9281
28.0065
26.3571
25.1345
72.9245
76.3567
23.9198
53.1112
63.7545
61.7297
65.6997
65.8213
53.4698
56.0804
60.7751
63.0002
44.2289
50.6647
46.5051
35.3538
37.981
39.6008
33.1771
31.0958
28.885
27.2823
25.5023
24.6277
39.2739
76.4115
84.1668
58.6853
67.484
65.9395
67.514
67.4957
52.8339
58.0575
61.1241
66.1361
44.5545
50.1167
48.2483
33.7522
36.5025
39.8084
31.6553
29.2198
28.3447
26.7005
25.0052
24.0181
20.8423
88.6311
64.7148
62.9092
70.9568
71.1976
70.68
71.3385
54.5285
57.136
63.2081
67.756
47.4039
43.3682
51.6711
33.1009
36.3754
37.9131
41.2496
31.336
30.3412
29.1836
27.4822
26.4208
24.6055
23.7787
44.618
79.0411
63.7105
66.1929
73.1917
73.0101
74.5149
73.141
53.6026
58.7333
62.6653
65.7976
71.0051
48.7495
43.8515
51.1512
33.4679
34.9965
37.4598
41.5854
32.6236
30.4527
28.8984
27.4985
26.3162
24.2754
23.13
38.721
94.198
61.7053
71.9364
75.6383
77.4155
78.0913
75.9672
73.5235
55.2524
57.3936
60.7906
65.414
67.6433
71.9831
47.9591
45.3699
53.2725
34.7406
38.3758
35.7121
40.6564
33.0329
31.8862
29.8208
28.973
27.6071
26.1361
23.6771
22.7243
64.5745
13.5505
68.8796
62.585
74.8225
78.8869
81.5267
77.7216
76.2261
59.1236
61.1956
66.2922
69.9757
73.9329
50.7514
44.5548
53.4797
37.7521
35.6333
41.6724
32.2302
31.209
29.8184
27.5575
29.4724
26.1504
24.9932
23.4998
22.6212
67.0522
9.02998
67.0521
69.0073
79.9805
80.0986
81.9604
77.6601
79.4027
76.5351
59.0243
62.7372
64.7696
68.7219
70.984
75.4457
72.8512
51.2878
45.6922
56.7031
38.5926
34.2096
40.9245
32.1636
31.7776
29.3307
30.7371
27.4197
25.5308
24.9094
23.2679
22.1736
34.4318
72.007
2.49321
66.1725
72.3157
82.3446
80.3055
80.0342
77.8613
78.6853
77.9272
61.6624
66.6439
70.292
68.4562
76.2015
73.9772
54.6955
49.7485
47.4972
43.4769
56.5863
38.2224
34.1935
41.8402
32.9958
29.8358
30.6523
32.4723
28.9954
26.758
26.0612
24.8883
22.1044
40.7602
66.0504
0.0459986
70.069
80.6494
82.0535
79.4278
76.507
80.3284
77.3441
77.1305
77.0443
77.4891
76.9691
62.95
66.1184
72.218
70.3827
75.3926
55.005
50.6045
48.014
44.2437
59.4291
39.8435
35.8203
35.2794
31.8957
31.9708
33.2942
29.8632
27.3021
26.0813
25.8422
23.1991
22.0819
29.6226
68.6616
6.8708
70.0561
81.0078
83.7288
84.1937
76.1022
72.6484
76.0841
75.652
75.0926
74.0868
75.7886
76.5643
62.0328
67.7801
72.4904
70.1465
75.9742
58.6173
52.8397
46.8932
43.3178
40.166
36.5704
33.3052
34.9165
31.3107
28.6919
27.9973
25.3166
27.7558
23.286
22.682
21.779
37.352
56.9869
64.2373
2.57551
80.4608
86.3214
79.7227
73.0826
66.3465
71.2489
73.3228
73.7427
74.3239
75.5708
76.3118
64.7965
67.0721
74.2238
71.9091
76.4137
60.2427
52.9883
47.8998
44.432
41.463
38.4525
35.4558
33.0101
31.9934
29.3683
26.2603
28.9234
25.0846
24.2302
22.7816
22.0866
20.0563
65.1842
62.3239
3.56738
81.1129
84.6464
72.6793
79.0479
66.749
59.9174
63.5456
61.8089
69.8657
69.7796
71.944
74.0695
76.6063
64.6863
68.7353
74.2802
71.2956
75.5392
59.4545
63.0085
50.5817
56.7705
46.0955
43.0985
41.6606
39.5708
37.1728
34.4009
30.9294
33.1882
27.6878
30.573
25.4917
24.4387
23.0177
22.039
37.2785
62.9898
70.9684
0.972306
83.4949
79.0235
69.0777
72.5431
62.8269
54.6211
56.1242
54.9851
65.3236
67.7201
69.2997
71.7353
74.0411
75.5443
67.7063
75.1964
73.1603
75.6786
62.6491
50.81
56.3586
46.4858
44.0953
39.1766
37.6128
36.3903
32.2774
33.9427
28.6316
30.46
32.1035
27.4748
25.9913
24.6841
23.1077
22.3026
35.7467
66.961
72.705
1.72244
80.948
80.1133
72.3441
59.9394
56.3754
47.7624
53.0036
46.9996
59.6745
62.1503
65.3997
69.4484
72.6455
74.4102
68.8678
74.7496
74.4141
71.674
76.0319
64.2145
53.8249
48.5699
58.9552
43.2024
40.8054
39.7968
37.1098
35.8308
32.0312
34.5064
27.9114
26.088
25.4522
24.794
23.643
22.7926
16.3295
51.5887
66.2654
84.1433
66.003
62.6852
50.1091
54.7789
43.7795
42.2656
45.4933
36.5098
58.7385
60.3876
65.8113
70.0606
72.8386
75.2606
67.8016
75.2743
74.4878
72.0735
63.828
53.9893
49.0246
61.7425
57.1287
44.5672
40.8674
39.7014
36.4742
34.2927
31.9677
29.9752
27.8935
27.2223
26.0941
25.9756
23.7725
22.7042
14.9027
53.0788
65.1889
76.9673
69.9334
60.7986
56.8648
50.8854
36.9787
50.5959
35.4113
34.0933
41.4092
30.0226
51.6609
56.9061
62.8838
67.5772
72.1806
73.5013
69.5104
75.3485
74.5289
73.3683
67.5042
51.9517
47.0371
62.7965
58.0084
43.1235
41.2181
39.1118
36.1748
33.997
29.8467
27.8865
27.4733
26.1129
23.9855
22.9871
5.98247
32.368
58.3842
76.8837
64.7073
41.0216
44.0989
39.988
28.8637
44.5499
31.0018
29.1441
32.1846
22.9056
48.4461
50.889
58.2061
63.577
68.579
74.0227
75.1629
75.416
73.1953
68.0061
52.184
47.2172
61.0091
65.4698
55.1595
44.4178
43.7715
41.0074
39.6939
35.6998
38.5155
34.632
31.8437
29.5804
27.6781
29.3676
26.2541
23.9562
22.7778
4.30572
39.4204
56.6264
62.2754
73.148
44.8683
66.7327
36.4611
33.9782
30.0611
16.0756
38.7103
22.417
21.2892
28.9299
17.9185
40.7464
46.8714
55.5017
59.4095
67.343
73.415
74.5041
74.8209
74.3734
72.2497
70.2968
49.0825
62.5924
65.5441
55.2639
45.1591
43.7483
42.8616
37.5349
39.3241
33.9582
36.9646
31.4067
29.9331
30.875
27.8021
26.0076
24.0518
23.2013
9.39393
29.5322
59.4587
75.7993
51.2616
19.6191
21.6705
20.7561
13.1062
13.0347
32.129
18.5321
15.8165
24.3671
10.2932
36.0711
39.6499
49.9867
57.1108
58.2698
62.906
69.5375
71.5393
74.1282
74.6567
73.9937
72.729
68.086
48.1466
61.7379
52.491
58.4607
44.5747
43.7534
41.7438
36.0909
38.0056
33.7102
31.2592
33.2023
27.6361
30.2858
26.0938
24.176
23.1026
3.0303
31.8108
67.9019
43.6241
61.3562
35.9148
10.8305
17.2117
14.6509
5.76305
5.39057
25.2162
11.1945
10.2322
17.7125
5.66142
28.5776
36.6388
48.0614
55.8059
58.9378
61.8898
67.9657
69.7977
72.8969
74.0851
74.4637
72.4593
68.8096
49.6797
63.6938
53.5269
56.8404
47.7306
46.6729
42.703
36.0324
40.5305
33.9032
34.8697
29.7848
31.5405
28.1053
26.6573
24.3891
23.2657
12.7424
60.2993
45.0392
38.078
58.2417
3.84665
7.81419
5.57591
1.29833
2.37509
24.373
8.0382
5.65933
12.4434
2.07741
24.0224
40.6
29.9685
52.0551
44.6663
54.7868
65.0661
59.264
70.4796
73.2554
73.8294
73.6257
71.1106
66.9415
62.1433
51.3641
58.5343
48.555
48.0112
46.2428
38.9711
41.1425
35.8474
37.564
30.1632
33.6487
28.4942
26.5821
24.4538
24.4464
23.6418
7.95725
61.9942
39.8688
24.4527
63.8579
34.9866
1.90677
2.46124
5.5619
1.26774
0.282382
0.24973
17.4984
3.20593
3.48562
6.93612
0.817947
25.3683
17.3909
36.0454
29.5412
49.8138
45.3943
55.9132
51.2107
63.9465
60.1539
68.8741
72.3805
74.4405
72.6175
74.0872
70.6921
67.8826
63.5893
51.3793
57.1665
47.2206
39.4881
44.6497
38.2445
35.6577
32.933
34.4745
31.0212
27.9233
26.5492
26.5049
24.7056
23.5377
18.1428
1.89384
53.2045
46.5424
9.47365
59.4262
26.7047
0.0726937
0.361289
1.65931
0.0650379
0.119093
0.105888
0.186638
1.90066
1.34826
5.28476
0.11176
18.8188
14.8497
37.2622
24.5956
42.2275
53.052
48.3341
65.9178
58.0681
70.1554
74.1029
72.1222
73.4969
71.8493
66.424
61.9958
53.5766
59.0599
50.66
42.8375
44.8282
40.7455
37.7539
33.2834
37.1563
31.8596
30.2208
28.8103
27.1192
25.0133
23.7796
14.6662
0.79735
55.6729
25.5029
3.66185
63.9279
35.6783
9.16872
0.154507
1.20035
0.366706
0.0982629
0.292758
0.302613
0.290306
0.367241
0.622962
1.94597
6.35479
0.270215
0.226126
18.0319
8.47335
33.1547
25.7079
43.4395
49.0715
53.9777
63.625
58.9915
68.5116
73.0962
74.1027
69.65
73.778
71.0967
66.938
63.539
53.406
56.401
51.768
43.044
47.8053
40.3536
35.3546
39.1836
34.3347
31.0855
29.0273
27.2172
24.9966
24.8178
23.9837
12.2102
4.21608
46.4108
28.8136
52.9762
34.0651
2.33911
0.32569
0.348935
0.0614067
0.173528
0.367845
0.282754
0.366412
0.15219
0.220193
1.34374
2.4903
0.44886
0.398217
11.463
7.05413
34.541
20.779
40.3666
43.1993
51.8722
64.8958
55.4281
72.7241
73.7812
68.5743
72.2692
68.7704
62.5321
56.1769
50.6564
46.6114
41.7702
37.8865
39.4604
36.1283
33.6052
32.0657
29.0414
26.9751
26.8243
25.2163
23.965
0.00126343
5.21406
48.1014
18.7902
52.9774
13.9371
0.548296
0.217417
0.0423109
0.198603
0.0704574
0.224748
0.236087
0.208904
0.376631
0.221065
0.220513
0.426712
1.66286
0.390579
0.406674
0.378908
10.6501
3.04311
31.2382
14.5411
24.3291
40.5294
48.1143
63.3677
56.0894
73.9714
70.4091
72.9061
74.1126
65.6399
71.884
68.2758
65.0993
58.5502
0.00126768
53.6523
47.9028
43.8724
38.6598
43.137
35.9638
34.2348
31.7511
28.6751
28.6404
27.4593
24.3537
0.00124642
2.8829
40.4579
5.64848
25.3101
49.8783
11.0288
0.204804
0.131482
0.046656
0.172541
0.169681
0.142061
0.192002
0.202012
0.150017
0.266596
0.3401
0.323817
0.539747
0.347569
0.38865
0.43761
5.62045
2.84418
33.4717
12.0792
21.4253
42.37
47.6842
60.3425
52.1372
73.1878
69.9073
72.5785
73.6018
64.9676
70.1106
64.5013
57.4886
52.0754
46.3736
44.5868
41.1695
44.0551
38.4239
36.4673
33.7465
30.1791
29.0636
28.4774
26.0435
24.9718
45.0421
3.02539
14.8851
27.0369
55.8141
3.4527
0.0385165
0.00532371
0.0898885
0.155533
0.128246
0.16099
0.0724497
0.116402
0.118775
0.0936247
0.203291
0.336131
0.229449
0.253479
0.354179
0.46159
5.10667
0.958981
27.9824
7.62327
16.3304
35.9398
44.1719
59.5186
52.6595
71.9369
73.2951
67.7612
73.1683
71.6742
61.892
69.9219
67.2527
60.524
53.5297
47.4737
41.2021
46.4566
38.1218
38.059
36.329
32.229
31.476
30.2783
26.5632
25.8906
24.6537
37.3432
3.39429
19.8905
20.6851
37.886
8.35192
0.535535
0.0993218
0.104107
0.0735406
0.192204
0.0811752
0.0788361
0.0612886
0.0896621
0.0995803
0.127181
0.335512
0.298053
0.233812
0.365443
0.437596
2.08923
0.409743
29.0944
6.96032
15.21
37.6805
45.128
56.7495
48.7645
70.9101
73.0498
67.8931
72.392
71.403
61.404
67.3863
59.8338
50.3074
57.0932
43.399
47.0778
49.044
39.8711
38.1981
37.3511
33.2164
32.0783
31.3456
29.701
27.687
25.989
25.1758
37.7733
0.987944
15.1606
38.4163
4.25447
0.0288694
0.100269
0.0727178
0.0884817
0.053461
0.0627159
0.0440873
0.0557708
0.0743038
0.0854034
0.0988011
0.435595
0.232313
0.185433
0.262524
0.335479
0.470808
1.5934
0.277443
24.138
3.04632
10.1233
18.41
35.0941
42.3057
55.9887
49.3013
71.9701
73.0584
72.5868
66.2943
69.8995
58.3793
63.1174
66.0395
61.5633
50.9215
58.0795
42.1282
45.9229
49.8605
41.6613
40.4282
35.5914
34.3772
34.3263
29.9874
27.7909
26.6769
25.7233
39.5118
33.422
0.706897
22.387
6.16114
25.9311
0.616902
7.43431
0.109933
0.0726166
0.0585438
0.0619779
0.0417789
0.0417132
0.0327506
0.0550431
0.0406474
0.0669382
0.089044
0.0699021
0.106228
0.384183
0.212026
0.125154
0.260032
0.302716
0.461028
0.453843
0.310678
26.8121
2.60786
9.55786
14.3632
32.5238
45.1898
52.3564
71.5721
73.0319
71.8377
66.7343
69.3887
56.7654
61.4613
63.6394
67.256
54.6983
57.4764
43.6041
47.9699
51.5415
42.5537
40.9212
36.1968
35.4033
36.0255
31.9466
29.3032
28.9421
26.7942
25.5642
39.3636
35.7996
0.348962
14.6945
4.29188
28.6393
0.0535947
1.63131
0.100523
0.0590668
0.0491882
0.0327698
0.0362925
0.0299989
0.0278593
0.0254045
0.0361687
0.0539953
0.0824837
0.0600038
0.0913085
0.473166
0.129221
0.153452
0.407539
0.191706
0.350076
0.320828
24.2397
3.98018
1.02039
6.29679
14.3584
34.8162
44.9781
52.2479
70.7368
72.4417
72.1092
70.4055
63.0294
68.2107
58.6537
62.3534
65.9973
54.0573
59.8246
46.3264
50.4843
51.9541
46.5101
38.5183
43.619
38.3646
38.9416
34.5983
31.2633
30.8318
28.9629
26.8451
26.2232
35.1535
32.2127
0.207768
5.83968
19.8443
0.900012
13.6423
0.369758
0.105313
0.0718056
0.0328003
0.034426
0.0236835
0.0244639
0.021034
0.0195507
0.0197622
0.0304597
0.0441897
0.0646632
0.0853925
0.0475939
0.100398
0.450231
0.1225
0.147632
0.401066
0.178434
0.325893
0.486033
0.458329
17.77
29.784
1.77714
7.67147
41.198
49.4933
71.1749
72.0808
71.1418
69.0201
61.4673
66.8335
58.4121
63.8415
67.0683
56.1648
59.1629
47.9749
52.3425
54.8877
47.8356
46.5593
43.0471
40.3508
40.8241
40.4358
35.2174
33.2252
30.7694
33.0115
28.9671
28.0665
26.2067
36.4058
34.4888
2.86214
14.9786
0.181238
11.8425
0.252778
0.0870238
0.0632725
0.0226152
0.027753
0.0171635
0.018864
0.0153986
0.0143402
0.0153142
0.0227165
0.0319689
0.0542184
0.0807953
0.0395369
0.0979511
0.110219
0.393957
0.123449
0.204089
0.338868
0.314272
0.511192
16.188
30.3225
1.68308
5.97488
43.4476
49.5651
70.2525
71.8479
71.5694
69.6833
63.1448
68.3821
57.4152
61.4651
66.0791
51.3366
55.8657
51.5173
48.8439
44.9449
43.6478
40.2494
43.2939
37.6979
33.2718
35.2336
30.6382
30.566
28.0351
26.1742
24.1117
32.276
1.69017
21.0728
5.66475
0.0882034
4.94377
0.0257713
0.100907
0.0383289
0.0166767
0.0207313
0.0140296
0.0148908
0.0128437
0.01069
0.0108646
0.0179714
0.0242015
0.0443011
0.0615053
0.087422
0.028449
0.106944
0.27508
0.476192
0.116433
0.141941
0.470057
0.566251
19.1076
12.6697
36.0236
24.0988
2.62529
7.95217
42.5799
54.4809
70.3991
71.9102
71.2688
67.5113
62.5904
67.096
58.8893
61.597
63.9124
53.7028
58.4918
51.6353
47.6573
45.9563
42.9566
37.3021
35.1999
32.9579
32.8222
31.1374
27.744
26.5439
25.5796
30.8687
0.358444
18.5263
1.84899
2.46248
0.0707407
0.0562887
0.0264544
0.0128115
0.0180326
0.00984055
0.013414
0.0110395
0.00822828
0.0087758
0.0145427
0.0205005
0.0388384
0.0543654
0.0811139
0.023303
0.0899805
0.290817
0.429924
0.101436
0.148549
0.475234
0.327675
14.2312
34.7542
24.6911
2.17951
4.2439
47.1061
52.033
68.6014
71.0661
71.9881
70.4287
67.1207
61.0915
65.4056
58.5932
62.5912
56.9831
59.0488
54.0638
49.659
45.2988
48.2821
42.0423
39.3893
37.9475
34.6777
33.1423
31.6923
30.2887
27.7184
26.352
12.307
28.8734
0.0928416
7.36312
21.0464
0.22876
0.37627
0.0237183
0.0578172
0.016422
0.00846014
0.0156555
0.00787265
0.0108075
0.00858454
0.00632176
0.00639018
0.012771
0.0182543
0.0447214
0.0274726
0.060976
0.0193704
0.0868632
0.205858
0.450074
0.101611
0.113162
0.462079
0.265611
0.585585
13.7365
28.6358
39.5101
18.6636
1.32627
4.73062
44.8369
54.6368
68.0471
71.1347
71.0993
70.1287
68.471
64.1394
62.0966
64.7041
57.7861
60.542
58.9278
52.9677
57.6931
47.6727
50.0109
44.1763
38.9713
37.1697
35.6299
34.3773
32.1286
29.9378
27.9559
26.9118
10.8563
28.8472
5.02525
22.2932
0.0584808
0.0147429
0.027004
0.0438941
0.0132654
0.00677242
0.01347
0.0155064
0.00583088
0.00960303
0.00622391
0.00565765
0.00482522
0.00558719
0.010402
0.0402435
0.0242068
0.0495799
0.0179321
0.0747594
0.244354
0.410094
0.0937261
0.116602
0.600033
0.318801
0.250419
6.87399
27.3961
38.3349
19.2286
2.12317
48.7269
52.6755
65.6843
69.1709
70.6072
71.7089
71.45
68.9276
66.5709
62.8346
59.1335
61.4319
55.0008
60.3325
47.5925
53.1015
42.2294
37.8626
34.9473
32.1129
30.5035
28.4198
27.0221
2.76847
9.80136
19.5835
13.9967
1.43873
0.130252
0.0128685
0.0467425
0.0159192
0.00783325
0.0045339
0.00599431
0.0115922
0.0133703
0.00452312
0.00716348
0.00528994
0.00421398
0.00480413
0.00395397
0.00404932
0.00896166
0.0290001
0.020225
0.0481175
0.0149661
0.077982
0.056543
0.180677
0.466452
0.097684
0.132451
0.537538
0.33313
5.59363
32.6343
42.1309
18.1216
2.13263
48.2895
54.657
64.2456
68.2148
70.2787
70.7993
70.8765
67.2249
68.6421
64.4859
59.6431
58.6528
63.2627
49.6286
54.6826
43.2057
40.2701
37.1762
34.6804
32.4538
31.2418
28.1662
26.8428
3.99807
18.9016
10.3615
2.11851
0.00751312
0.0362918
0.00908786
0.00757013
0.00341527
0.00406889
0.0100094
0.013125
0.0035474
0.00606137
0.00471413
0.00353688
0.00383287
0.00350997
0.00680977
0.0266399
0.0186246
0.0317316
0.014763
0.0607534
0.0472876
0.244431
0.402241
0.0954339
0.131723
0.527805
0.300757
6.59667
32.7589
46.8447
39.4904
11.4754
24.5225
0.658458
52.8317
57.4464
65.4032
69.2711
69.9523
70.8294
70.986
69.4824
64.9022
66.6077
62.4568
60.603
49.2844
53.1615
58.2691
46.0794
40.6989
39.3263
36.8863
34.4209
32.718
32.4407
30.8905
28.3559
27.1584
1.86293
8.68287
17.1294
11.6918
0.787029
0.0411781
0.00758123
0.010247
0.00608344
0.00267301
0.00327107
0.00920866
0.0107502
0.00283248
0.0050316
0.0039145
0.00282096
0.0035778
0.00293706
0.00601172
0.0205148
0.029314
0.0122486
0.0572379
0.0361737
0.183574
0.46477
0.0878257
0.106183
0.535986
0.307606
3.32459
30.9849
49.4535
41.5782
11.9812
23.4492
1.32641
54.6791
58.3377
64.8331
68.6217
69.8868
70.1979
69.2658
68.5551
64.8371
64.3129
62.3774
63.2166
51.63
55.1508
58.7037
45.8776
43.0303
41.4055
38.9036
37.301
35.5543
35.1238
31.1531
28.3557
26.9387
0.268771
6.40948
17.6614
9.52721
0.14776
0.0294031
0.004743
0.00587398
0.00371909
0.00635011
0.00248758
0.00222206
0.00233268
0.00696897
0.010167
0.00238126
0.00455082
0.00334921
0.00247658
0.00263883
0.00290213
0.00261719
0.00512462
0.0189957
0.0227118
0.0123225
0.0374632
0.0631218
0.23381
0.408637
0.090033
0.110319
0.510586
0.312345
4.19746
36.0608
46.2298
53.0553
7.1884
17.7052
29.3936
0.492935
56.8049
60.5602
67.0475
69.115
69.8799
69.045
66.5458
64.5097
65.1315
53.9663
52.1746
60.6055
48.2538
41.5803
39.2434
37.7386
37.1597
33.0471
30.821
28.5026
27.497
0.0803986
7.62387
1.03007
15.6745
13.3786
11.4336
3.12411
0.0361459
0.0368169
0.0063696
0.0270166
0.00284895
0.00564804
0.00191356
0.00172746
0.00187071
0.00630167
0.00713893
0.00189621
0.00378893
0.00275325
0.00335613
0.00193409
0.00208798
0.00205953
0.00503723
0.0157857
0.0215233
0.00949439
0.0311161
0.0473758
0.191778
0.482123
0.0719411
0.108402
0.118759
0.547169
0.331675
1.59939
35.1906
47.3913
54.7501
8.02186
18.4522
29.3023
57.4296
61.1509
66.8718
69.269
69.8822
67.7762
64.4006
63.1309
64.8719
55.0305
51.3535
59.4548
48.1676
43.3888
42.0624
40.6876
40.2225
35.9855
32.7919
30.993
28.8652
27.4621
5.35061
0.413426
15.1795
12.9098
7.33475
2.92079
0.0886286
0.0132238
0.000427419
0.00874247
0.00206282
0.00343605
0.00610215
0.00176829
0.00169287
0.00144946
0.00174442
0.00140715
0.00621419
0.00167979
0.00357134
0.00242061
0.00265059
0.00184757
0.0018865
0.00439403
0.0153178
0.017708
0.0242277
0.00739921
0.0105333
0.0364427
0.0533955
0.285755
0.439475
0.0758123
0.108039
0.125539
0.522036
0.350062
1.9979
39.4521
44.426
51.8105
54.7915
4.40867
13.5918
25.2105
36.0461
59.5954
63.1096
68.2047
69.0306
69.857
70.052
67.6844
65.7619
64.2949
66.4296
56.7562
53.3735
61.4435
46.0901
51.5747
43.9166
43.579
41.3824
42.7727
37.5422
35.3647
33.3672
31.6026
29.1385
28.0125
8.74876
1.48883
9.89313
14.2525
1.08402
0.00944438
0.00436008
0.00182045
0.00275175
0.00488092
0.00137215
0.00137145
0.00122168
0.00134104
0.00116194
0.00464622
0.00642822
0.0014167
0.0029465
0.00208338
0.00255335
0.00148407
0.00159199
0.0128696
0.0163003
0.0234222
0.00634491
0.00874545
0.0298519
0.0397901
0.260577
0.52002
0.100249
0.0574845
0.114832
0.150284
0.54714
0.860035
0.266924
47.372
52.0135
57.6888
6.12341
15.2509
26.5676
38.0513
60.1644
62.6263
67.8156
68.9342
69.2579
69.4918
68.8927
65.6244
63.3878
66.3494
56.2443
61.0725
47.0521
52.2422
46.3931
44.9485
45.8852
42.4967
40.0665
35.796
33.8303
31.9629
29.3383
27.7637
4.72614
0.364119
6.70667
13.8885
1.43181
0.010326
0.00526475
0.000769651
0.00214287
0.00136766
0.00123841
0.00102104
0.00110908
0.00118766
0.000967711
0.00389332
0.00469675
0.00131442
0.00282553
0.00185087
0.00219043
0.00137482
0.00147185
0.0015622
0.0127245
0.0174451
0.0140576
0.0201211
0.00470917
0.00694808
0.0100395
0.0322702
0.043944
0.362258
0.481046
0.10406
0.0648355
0.115746
0.158178
0.496941
1.2213
0.380198
45.4916
55.4227
57.6299
59.7053
11.796
4.19645
21.8452
33.9109
63.5569
68.7101
68.955
69.3997
66.6711
65.1934
63.6884
65.2329
67.7448
58.2857
49.7747
55.1564
49.7395
48.5711
44.9515
40.8939
39.0399
36.7734
34.6847
32.0193
29.5031
28.4306
6.30033
0.0713126
7.40104
12.3966
10.9191
0.317801
0.00818583
0.00319881
0.000498838
0.00182296
0.001227
0.00103452
0.000900267
0.00091553
0.000945395
0.000847871
0.00310195
0.00109642
0.00226017
0.00193421
0.0011888
0.00121611
0.00143691
0.0153451
0.0131184
0.0219663
0.00362109
0.00638508
0.00939356
0.0279628
0.0329415
0.342514
0.539632
0.126429
0.0906723
0.0570605
0.104231
0.235923
0.530523
2.13054
0.493242
47.4792
55.8676
59.488
61.4071
14.8161
6.54062
24.2581
35.5975
68.2025
68.9733
68.2903
66.8638
62.7496
60.7923
65.612
67.9921
58.1343
50.958
54.8896
52.3303
47.7845
51.5273
44.1706
39.5495
37.4081
34.7816
32.2038
29.8716
28.3447
3.53157
0.0207693
4.10536
11.3493
10.075
0.53813
0.00367002
0.00988918
0.000486819
0.00141103
0.000955922
0.000999871
0.000909952
0.000820937
0.000811965
0.00086081
0.00077855
0.00277922
0.00102018
0.00204503
0.00166738
0.00104875
0.00115829
0.00149295
0.00122314
0.0156868
0.0106214
0.0191086
0.00376143
0.00297129
0.00506081
0.00830297
0.0332274
0.48734
0.123065
0.102867
0.0678954
0.0432746
0.11734
0.251061
0.48824
2.1036
0.883396
0.358121
42.582
51.9721
58.2194
54.8652
61.4037
59.1414
11.8064
21.2194
4.36092
30.6461
68.8493
67.218
64.0469
62.0461
60.6563
67.4227
64.1363
67.8651
68.929
56.9275
56.2424
49.4072
54.6968
46.4264
41.9454
40.5416
37.4184
34.6308
33.02
30.0936
28.9357
0.111016
3.33574
6.19043
11.4619
0.0507867
0.00158172
0.00581131
0.00826096
0.00128225
0.000826767
0.000857749
0.000894879
0.00077701
0.000705089
0.000703484
0.000714633
0.000699899
0.00218251
0.00089218
0.00170139
0.000941674
0.0010063
0.00130149
0.0011408
0.0137704
0.00989758
0.0206707
0.00297539
0.00421394
0.00257486
0.00592804
0.00805947
0.0252423
0.493455
0.12087
0.0905402
0.0540052
0.0417747
0.13567
0.377475
0.509933
1.14552
0.509435
43.5854
51.41
58.5542
56.874
62.5103
61.0114
15.7515
25.1446
5.02947
32.5636
68.9682
65.666
68.0309
63.8159
58.7983
67.0241
64.4593
67.9929
68.7033
51.7177
58.2256
54.1155
46.6842
44.8915
42.6157
36.9068
40.2482
35.1804
33.3147
30.3776
28.7448
0.226546
7.19164
1.21737
3.89391
8.76113
0.0991365
0.00143304
0.0060548
0.0451369
0.000977175
0.000711971
0.000721123
0.000786259
0.000691955
0.000678704
0.000679778
0.000648077
0.000665495
0.00194841
0.000801486
0.00149487
0.000830473
0.000910102
0.00130256
0.00101107
0.0104232
0.0148658
0.0181624
0.00295803
0.00364681
0.00219468
0.00535323
0.0303466
0.572908
0.122137
0.100781
0.0561063
0.146483
0.401948
0.656441
0.31127
2.16804
0.634076
48.3837
38.3183
53.9811
59.5084
56.1793
61.8577
23.6897
14.1657
8.55665
64.1823
67.0233
60.988
66.2412
67.6513
63.8639
67.7624
68.4738
67.5954
52.4625
55.6977
50.8774
46.1363
42.5407
39.3171
41.2501
38.6803
35.6451
33.1467
30.5342
29.3335
6.90966
1.09739
4.46034
8.71112
0.0317612
0.000851361
0.00316814
0.0100409
0.000924655
0.000673244
0.000650603
0.000690487
0.000622166
0.000611005
0.000602721
0.00061361
0.000613232
0.00165149
0.000715402
0.00150891
0.000780746
0.000813297
0.000932235
0.00116963
0.00101528
0.00886407
0.0132452
0.0191954
0.00241645
0.00383691
0.00197242
0.00565237
0.0285285
0.528256
0.124038
0.108018
0.0923279
0.0687433
0.0443608
0.215152
0.370421
0.595352
0.40525
2.76547
1.38918
48.6362
39.5915
52.8569
61.0268
59.1773
57.7377
63.0849
28.5702
20.2174
9.41032
65.0523
61.0447
66.0029
67.0158
65.2241
67.8577
67.263
66.7536
58.1445
51.9984
49.0628
45.8558
44.6471
40.4475
35.4512
39.0964
33.4026
30.8546
29.1397
3.86312
7.86347
0.263813
2.47606
7.67603
0.0768794
0.000893138
0.00252753
0.00413284
0.00975778
0.000712794
0.000599466
0.000590486
0.000633145
0.000569546
0.000563774
0.000564244
0.000574203
0.000576231
0.00161548
0.000655713
0.00123632
0.000686382
0.000751507
0.00080038
0.000893639
0.00686976
0.0104222
0.0155815
0.0219598
0.00257736
0.00204919
0.00331638
0.00422657
0.0337269
0.586963
0.128255
0.134712
0.105898
0.0675315
0.0519452
0.211817
0.493303
0.614507
0.369927
5.82824
1.99721
46.4164
36.1999
54.5236
61.8409
60.2607
57.8136
63.6326
26.3756
19.8504
15.8431
64.2913
66.6233
66.9826
65.1644
67.2111
66.1212
65.6049
58.548
55.2785
49.3191
46.3599
44.2709
38.7584
41.1769
36.1378
34.1022
30.2616
28.7967
4.37119
6.66459
0.430766
1.78476
3.46133
7.96622
0.0514621
0.000747979
0.00123485
0.00288204
0.00233175
0.000667144
0.000538838
0.00059302
0.000522604
0.000525813
0.000520436
0.000526791
0.000517538
0.00140964
0.000617254
0.00116727
0.000661083
0.000775507
0.000902217
0.00659593
0.00922361
0.0153871
0.0220105
0.00206886
0.00304278
0.00183337
0.00366806
0.00453366
0.0274696
0.56528
0.123242
0.127095
0.0891875
0.054458
0.299352
0.475831
0.580423
0.363532
0.760048
7.88808
4.69951
48.5763
40.5678
57.0823
53.1259
61.5465
63.0953
59.3219
61.0584
64.689
32.3948
24.345
18.058
61.9919
66.0836
66.8533
66.2704
66.2745
65.1924
55.5829
52.1203
49.8711
46.317
39.112
44.7562
36.7117
34.7716
32.5168
30.3565
29.2364
2.72753
7.1107
0.0713286
0.254125
1.98487
7.2193
0.000683835
0.00142941
0.00311
0.001211
0.00057051
0.000519646
0.000487525
0.000542198
0.000525947
0.000494532
0.000493203
0.000502351
0.000499831
0.000491015
0.00149566
0.0012469
0.000584778
0.00101962
0.000610814
0.000678975
0.000804299
0.00572324
0.0101571
0.0191869
0.0125955
0.00206041
0.00315072
0.00377909
0.0318096
0.618553
0.124681
0.146473
0.0948272
0.0751451
0.0437298
0.347579
0.627385
0.375511
1.66899
13.118
5.12123
46.8119
38.5082
58.0879
55.4141
62.7204
63.6212
59.8956
61.3474
65.0748
30.8909
23.001
17.481
61.1989
66.248
66.7131
64.1916
65.2654
63.1574
58.3119
52.1947
51.048
49.6934
42.5078
46.6497
40.6608
36.9784
32.6538
30.6252
29.2411
3.48287
5.87748
0.247513
0.00348533
0.340789
3.4103
7.35551
0.00065689
0.000931585
0.0019459
0.000466211
0.000540445
0.000474375
0.000462619
0.000520857
0.000496287
0.000479427
0.000467666
0.000468414
0.000473405
0.000456971
0.00129985
0.00110342
0.000531498
0.000983057
0.00060912
0.000673912
0.000883391
0.000736223
0.0063997
0.0085369
0.0194362
0.0131227
0.00256011
0.00168448
0.0031485
0.00395508
0.0292826
0.599798
0.124321
0.117095
0.251531
0.0839326
0.0507061
0.574178
0.610233
0.691889
0.365091
16.2331
6.11933
50.1383
43.4395
57.6162
59.4764
54.0121
63.0944
64.5341
60.8842
62.2706
66.1239
35.5463
26.3998
22.8757