/*--------------------------------*- C++ -*----------------------------------*\
| =========                 |                                                 |
| \\      /  F ield         | OpenFOAM: The Open Source CFD Toolbox           |
|  \\    /   O peration     | Version:  v1912                                 |
|   \\  /    A nd           | Website:  www.openfoam.com                      |
|    \\/     M anipulation  |                                                 |
\*---------------------------------------------------------------------------*/
FoamFile
{
    version     2.0;
    format      ascii;
    class       volScalarField;
    location    "10000";
    object      nut;
}
// * * * * * * * * * * * * * * * * * * * * * * * * * * * * * * * * * * * * * //

dimensions      [0 2 -1 0 0 0 0];


internalField   nonuniform List<scalar> 
71770
(
6.67838e-13
7.09977e-13
7.88458e-13
9.50981e-13
1.06932e-12
1.08211e-12
1.10256e-12
1.11922e-12
1.09485e-12
1.06254e-12
1.33349e-12
1.95572e-12
6.49139e-13
6.66752e-13
6.49448e-13
3.38252e-05
2.15829e-05
9.1867e-12
1.12414e-10
5.00238e-09
8.7211e-10
8.2608e-13
8.1488e-13
2.37104e-08
2.81121e-06
1.04871e-06
6.4163e-06
3.3777e-07
9.54569e-08
1.25428e-05
9.28213e-12
1.13794e-10
8.82949e-10
5.06496e-09
0.000290811
9.56631e-05
7.04706e-05
7.28103e-05
9.85998e-05
0.000130417
0.000169693
0.000101132
0.000133744
0.000173821
0.000178997
7.46356e-05
0.000218339
0.00022319
0.000229829
3.43234e-05
2.19219e-05
5.03122e-05
3.48861e-05
5.11317e-05
5.20122e-05
7.1546e-05
9.69164e-05
0.000128359
0.000167392
3.54642e-05
5.32718e-05
3.63102e-05
0.000137547
0.000103748
7.63218e-05
0.000136175
1.0639e-06
2.85329e-06
6.5157e-06
6.62202e-06
2.90257e-06
1.27415e-05
1.29443e-05
1.31697e-05
0.00030044
0.000300079
0.000297925
0.000293705
2.22743e-05
2.264e-05
2.32023e-05
0.000298164
0.0001389
0.000104188
0.000181627
0.000102996
0.0001379
0.000233991
0.000234808
0.000181306
0.000179509
0.000233472
0.000177252
0.000230983
0.000227235
3.59549e-07
6.98118e-06
8.95156e-10
2.45276e-08
9.87233e-08
1.01821e-07
3.78869e-07
1.16642e-06
3.0925e-06
2.53183e-08
1.35384e-05
1.15361e-10
9.60041e-12
8.39653e-13
1.1773e-10
9.13504e-10
5.24006e-09
9.92992e-12
1.21603e-10
9.43426e-10
5.41094e-09
5.40626e-05
3.65651e-05
3.67598e-05
2.36824e-05
2.40975e-05
2.3585e-05
0.000101731
3.68303e-05
5.34597e-05
7.52483e-05
5.33629e-05
7.45995e-05
3.22731e-06
7.19991e-06
1.38427e-05
7.33611e-06
1.39325e-05
1.41604e-05
7.55762e-06
4.04007e-07
1.23203e-06
2.68053e-08
1.0763e-07
2.88467e-08
1.15463e-07
3.33672e-06
3.48246e-06
1.45604e-05
2.36221e-05
7.85106e-06
3.65093e-06
8.84159e-13
9.67249e-13
1.28898e-10
9.99795e-10
5.73269e-09
1.05501e-11
1.12757e-12
1.07809e-09
1.22982e-11
1.1541e-09
1.48932e-10
1.25015e-12
1.39075e-10
1.14515e-11
6.178e-09
3.0824e-08
6.61016e-09
1.31006e-07
1.23002e-07
4.27775e-07
1.29135e-06
4.54062e-07
1.36171e-06
1.39232e-07
4.81473e-07
1.43759e-06
1.58939e-10
1.23184e-09
3.2878e-08
7.05441e-09
1.28472e-12
1.30846e-11
1.3892e-11
1.32618e-12
1.69149e-10
3.49776e-08
3.68405e-08
1.46527e-07
1.31114e-09
7.50774e-09
1.38155e-09
7.91015e-09
1.78213e-10
1.46079e-11
0.000100886
7.44318e-05
0.000100122
3.73108e-05
3.77833e-05
2.45948e-05
5.36414e-05
5.39675e-05
7.43651e-05
0.000134554
0.000132816
2.5053e-05
1.53274e-05
1.65195e-06
1.82563e-06
8.81192e-06
4.15465e-06
4.54426e-06
8.12612e-06
5.0578e-07
1.50512e-06
3.80299e-06
1.4967e-05
1.36174e-12
1.55968e-06
3.92969e-06
8.36243e-06
5.24897e-07
1.52149e-07
5.56228e-07
3.82587e-08
8.21454e-09
1.43464e-09
1.35756e-12
1.51203e-11
1.85021e-10
4.05249e-08
1.61207e-07
4.56908e-08
6.20549e-07
1.8106e-07
1.51907e-09
8.69926e-09
1.95842e-10
1.35629e-12
1.59389e-11
0.000101292
7.59195e-05
0.000173712
0.000133207
0.000107877
8.35307e-05
3.91892e-05
5.97704e-05
5.55648e-05
8.13581e-05
6.08109e-05
4.22239e-05
4.25713e-05
2.61465e-05
0.000181908
0.000140723
9.55863e-06
1.92872e-06
9.67197e-06
4.68571e-06
1.60802e-05
1.73634e-05
1.74051e-05
2.8189e-05
2.82491e-05
0.000111543
0.000146103
0.00018911
0.000120323
0.000156747
9.05347e-05
4.6889e-05
6.63167e-05
0.000243198
6.70741e-07
5.71533e-06
1.99198e-05
1.1403e-05
2.42899e-06
8.65125e-07
3.16058e-05
9.82605e-09
1.71711e-09
1.64428e-12
1.81169e-11
2.21498e-10
2.05842e-11
2.22792e-12
1.98965e-07
5.06916e-08
1.09518e-08
6.67722e-08
2.60293e-07
1.9176e-09
2.47779e-10
1.44651e-08
2.53479e-09
3.42547e-07
1.08349e-06
9.67896e-08
3.4918e-07
1.11269e-06
2.97047e-06
6.75362e-06
2.40395e-08
5.13508e-09
7.62467e-05
3.69461e-05
5.43075e-05
0.000174427
0.000225313
0.00023405
8.18355e-13
9.40366e-12
2.1734e-12
4.79093e-05
6.85253e-05
3.20757e-05
2.02092e-05
1.88151e-08
3.32706e-09
4.32726e-10
3.76197e-11
5.9268e-12
3.21068e-07
8.52169e-08
2.6963e-06
1.01572e-06
6.04529e-06
1.17047e-05
5.84713e-12
3.27359e-10
2.69173e-11
2.59985e-12
0.0112812
0.0160944
0.00405542
0.0171076
0.0196446
0.00239514
0.00566565
0.0119711
0.0232657
0.0201593
0.022982
0.00207774
0.00489806
0.0164128
0.0236143
0.026514
0.0225674
0.025494
0.0233156
0.00191014
0.00256182
0.00868913
0.0157185
0.0285957
0.0303095
0.0238503
0.028074
0.0243772
0.0238624
0.00198251
0.00353869
0.0112376
0.0211044
0.0275453
0.032302
0.0315659
0.0330199
0.0255262
0.0273277
0.0305447
0.0256512
0.0245978
0.0235845
0.00370454
0.0134105
0.0194193
0.0319258
0.0336341
0.0355523
0.0335408
0.0345445
0.0281495
0.0316059
0.0268199
0.0258782
0.0240233
0.0229616
0.00332219
0.00708855
0.0215261
0.0294268
0.03643
0.0360271
0.0373108
0.0340589
0.0359264
0.0293118
0.0307662
0.0331622
0.0268863
0.0264052
0.0254762
0.0235592
0.0225615
0.00309901
0.00792753
0.0157539
0.032701
0.0393936
0.0376596
0.0398109
0.0351032
0.0372863
0.0359907
0.0289613
0.0310403
0.0332509
0.0279353
0.027626
0.0251615
0.0231087
0.0219392
0.00680107
0.00260994
0.01203
0.0217941
0.0382921
0.029774
0.0414859
0.0394993
0.04126
0.0350978
0.037843
0.0368619
0.0297886
0.0320522
0.0342141
0.0287607
0.0259095
0.0246093
0.0228077
0.0210968
0.00684696
0.00187067
0.0166214
0.0404465
0.036629
0.0427733
0.0400481
0.0417938
0.035758
0.0385515
0.0367388
0.0319979
0.0338895
0.0287238
0.0271902
0.0245443
0.0224136
0.0219382
0.0211149
0.0102499
0.00468835
0.0217708
0.0428513
0.0381349
0.0429483
0.0434089
0.0393511
0.0407179
0.0413168
0.0423398
0.035515
0.0381574
0.0373338
0.0309688
0.0330381
0.0345014
0.0297061
0.0277677
0.0256203
0.0232628
0.0216369
0.0200249
0.00913642
0.0209231
0.00407683
0.0330356
0.0442551
0.0433781
0.043331
0.0442718
0.0395883
0.0402951
0.0414606
0.0420878
0.0360673
0.0384753
0.0370578
0.0310702
0.0328985
0.0338118
0.0290752
0.0270785
0.0246157
0.0230498
0.0208413
0.0197485
0.00559656
0.0124235
0.0275826
0.0359085
0.0450341
0.0449579
0.0439976
0.04287
0.0391004
0.040313
0.0409327
0.0421595
0.0360059
0.038022
0.0374469
0.0297922
0.0319585
0.0338038
0.0278819
0.0253255
0.0244
0.0224788
0.0204172
0.0191169
0.00383365
0.0137861
0.030364
0.0419167
0.0454008
0.0465597
0.0439646
0.043294
0.0391743
0.0396907
0.0407255
0.0416215
0.0369394
0.0353595
0.0381506
0.0293057
0.0318478
0.0327212
0.0344112
0.0276953
0.0266885
0.0255223
0.0235546
0.022304
0.0200054
0.0189733
0.00744988
0.0171633
0.0284107
0.0433128
0.0447053
0.0462733
0.0473849
0.0424972
0.0386149
0.0395745
0.0399679
0.0409051
0.0414006
0.0370432
0.035315
0.0376937
0.0296586
0.030871
0.0322994
0.0343823
0.0289486
0.0268645
0.0252243
0.0236082
0.0221284
0.0196047
0.0181579
0.00653642
0.0219662
0.0362673
0.0467584
0.0441859
0.0463156
0.0472218
0.0430036
0.0416922
0.0386253
0.0389663
0.0396148
0.0399182
0.0405304
0.0408317
0.0364836
0.0356229
0.03792
0.0306293
0.0327005
0.0312134
0.033818
0.0293109
0.0282743
0.0261527
0.0252165
0.0235416
0.0217653
0.0188283
0.0176578
0.0115161
0.00494089
0.0290126
0.0386605
0.047764
0.0452505
0.0469611
0.0420811
0.0409414
0.0388455
0.0391499
0.0395567
0.0405561
0.0404817
0.0368902
0.0350259
0.0376597
0.0321799
0.0309957
0.0340046
0.0284829
0.0274797
0.0259701
0.0233729
0.0254829
0.0216958
0.0203339
0.0185543
0.0175136
0.0116462
0.0037859
0.0336919
0.0453555
0.0478354
0.0439794
0.0449343
0.0409226
0.0421929
0.040175
0.0383712
0.0389674
0.0391291
0.0394764
0.0400524
0.040192
0.0399956
0.0367017
0.0351066
0.037943
0.032465
0.0299545
0.0335119
0.0281895
0.0277212
0.0249845
0.0264713
0.022876
0.0208645
0.020103
0.0181675
0.0169175
0.00850278
0.0176905
0.00185152
0.0424863
0.0473379
0.0481568
0.0434595
0.0429718
0.039753
0.0407713
0.0395014
0.0384499
0.0388823
0.0396035
0.0389874
0.0393286
0.0395427
0.0371602
0.0361402
0.0355402
0.0341668
0.0375435
0.0320239
0.0297764
0.0336108
0.0284937
0.0252835
0.0262534
0.0279114
0.0243917
0.0221317
0.0212477
0.0198353
0.0167644
0.00977632
0.015811
6.89634e-05
0.0458809
0.0491077
0.0451453
0.041499
0.0403464
0.0431056
0.0394763
0.0387593
0.0400504
0.0388405
0.0388794
0.0382364
0.0384649
0.0392139
0.0386771
0.0390672
0.0368618
0.036106
0.0354206
0.0341881
0.0376108
0.0326424
0.0306332
0.030057
0.0269585
0.0271965
0.0282768
0.0249049
0.0225186
0.0211515
0.0207058
0.0179142
0.01662
0.0083823
0.0186632
0.00520964
0.0449885
0.0491128
0.0488395
0.0463202
0.0398719
0.0388406
0.0406002
0.0382815
0.037503
0.0383107
0.0375306
0.0378228
0.0378499
0.038272
0.038796
0.0383033
0.0384248
0.0372058
0.0363501
0.0349216
0.0336697
0.0324746
0.030534
0.0278321
0.0292992
0.0259942
0.0237568
0.022837
0.0200967
0.0224811
0.017938
0.0171705
0.0161747
0.00937887
0.0143211
0.02805
0.0029622
0.050017
0.0503461
0.0438174
0.0381071
0.036482
0.039107
0.0375829
0.0372108
0.0368627
0.0371778
0.0374432
0.0377765
0.0379538
0.0383861
0.0379695
0.0378283
0.0371407
0.0359767
0.0349146
0.0338142
0.0329152
0.0314828
0.0293372
0.0273956
0.0263041
0.0241068
0.0208625
0.0232813
0.0196766
0.0186908
0.0171487
0.0163915
0.00690738
0.0163356
0.0331154
0.00330231
0.0512447
0.0471801
0.0400568
0.0438729
0.0360401
0.0345834
0.0352935
0.0355338
0.0362319
0.0358615
0.0357719
0.0360954
0.0370028
0.0374477
0.0377794
0.0379128
0.0376928
0.037044
0.0368008
0.0372493
0.035393
0.0363262
0.0342522
0.0332126
0.0327474
0.0317534
0.030168
0.0280877
0.0253222
0.0271161
0.0221045
0.0245537
0.0199536
0.0187762
0.0172304
0.0161924
0.0110757
0.0218834
0.0446946
0.00156285
0.0490569
0.0444846
0.0387987
0.0406665
0.0345458
0.0326911
0.0329479
0.0334736
0.0350643
0.0349883
0.0351162
0.035386
0.0357826
0.0362498
0.0374239
0.0373174
0.0373437
0.0369182
0.03689
0.0350928
0.0359479
0.0340845
0.0332594
0.031296
0.0300472
0.0292291
0.0261513
0.0273871
0.0227651
0.0242237
0.0257889
0.0216957
0.0201572
0.0187635
0.0171422
0.0162974
0.0104647
0.0258957
0.0481359
0.00378796
0.0495802
0.0453869
0.0408327
0.0354955
0.0325972
0.0304736
0.031738
0.0306171
0.0332275
0.033491
0.0338702
0.0344735
0.035088
0.0355816
0.0372418
0.036786
0.036889
0.0371768
0.0363615
0.0367078
0.0354729
0.0344662
0.0360157
0.0326995
0.0317409
0.0310204
0.0292943
0.0284477
0.025233
0.0271681
0.0218909
0.020122
0.0193742
0.0186831
0.0174646
0.016606
0.00877688
0.0160388
0.0376976
0.0506435
0.0396439
0.0374607
0.032386
0.0319367
0.029271
0.0283498
0.0293286
0.0267954
0.0327742
0.0327596
0.0336926
0.0343798
0.0349741
0.0357393
0.0369738
0.0362481
0.0361497
0.0367813
0.0364114
0.0352146
0.0342085
0.0361376
0.0355761
0.0328947
0.031255
0.0304698
0.0284309
0.0267754
0.0249234
0.0234102
0.0215161
0.0208744
0.019747
0.0195099
0.0173848
0.0163089
0.00810303
0.016172
0.0414196
0.0495042
0.0427228
0.0380694
0.035591
0.0328379
0.0271101
0.0306084
0.0260375
0.0252635
0.0277679
0.0238102
0.0307583
0.0317306
0.0328497
0.0335245
0.0345634
0.0348282
0.0367879
0.0358929
0.0360349
0.0363375
0.0363662
0.0347038
0.0335424
0.0358831
0.035382
0.032134
0.0309224
0.0295985
0.0276715
0.0261043
0.0230847
0.0212545
0.0206513
0.0193398
0.0173783
0.0164373
0.00705148
0.0122202
0.0235276
0.0518683
0.0409667
0.030231
0.0307392
0.028892
0.0239154
0.0287052
0.0240654
0.0230317
0.0242465
0.0203346
0.0296336
0.0301906
0.0318224
0.0327711
0.0335491
0.0347668
0.0353114
0.0356263
0.0359371
0.0361132
0.0344518
0.0333253
0.0355947
0.0359335
0.0347991
0.0323869
0.0319373
0.0305704
0.0295527
0.027195
0.0288664
0.0262955
0.0243421
0.022462
0.0206648
0.0221349
0.0193059
0.0171979
0.0160788
0.00593234
0.0144499
0.0223221
0.0316378
0.047719
0.0324402
0.0417616
0.0283792
0.0266632
0.0245146
0.0169399
0.0265309
0.0200189
0.0192666
0.0227387
0.0176814
0.0271452
0.0288638
0.0310366
0.031727
0.0330367
0.0342579
0.0347747
0.0349049
0.035586
0.0358996
0.0359851
0.0336394
0.0353955
0.0356408
0.0344922
0.0322073
0.0315326
0.0307695
0.0280249
0.0289707
0.0257349
0.0275847
0.023823
0.0223038
0.0230792
0.0204525
0.0188646
0.0171162
0.0163158
0.00843089
0.0130362
0.0324792
0.0501282
0.0352844
0.0202119
0.0203642
0.0198411
0.0147656
0.0147058
0.0240986
0.0178133
0.0160119
0.0205173
0.0123989
0.0253268
0.0265088
0.0296279
0.0312813
0.0313111
0.0320718
0.0333215
0.0336932
0.0343019
0.0344477
0.0352063
0.0353374
0.0355313
0.0330909
0.0351087
0.0338289
0.034801
0.0315913
0.0308714
0.0299391
0.0268052
0.027899
0.0251349
0.0230796
0.0246356
0.0201948
0.0222843
0.0188076
0.0170564
0.016044
0.00498285
0.013004
0.0439269
0.0187187
0.0437717
0.0293222
0.013534
0.0184702
0.0164246
0.00887825
0.00797124
0.0209189
0.0131291
0.0122011
0.0171271
0.00833557
0.0222829
0.0253133
0.0289719
0.0309043
0.0313325
0.0316267
0.0328351
0.0330472
0.0336366
0.0338522
0.0348335
0.0350311
0.0352711
0.0332515
0.0349681
0.0337409
0.0342711
0.0325222
0.0317912
0.0300533
0.0265406
0.0289991
0.0247144
0.0254531
0.0216938
0.0229472
0.0203009
0.0190088
0.0170892
0.0160262
0.0101169
0.0377954
0.0207872
0.0305883
0.0429871
0.00658295
0.011659
0.00857149
0.00266906
0.00449649
0.0204616
0.0104554
0.00800893
0.0136611
0.00377563
0.0201138
0.0266335
0.02263
0.0299628
0.027918
0.0302707
0.0321481
0.0310237
0.0330385
0.0335186
0.0335171
0.0345865
0.0350507
0.0350764
0.0346337
0.0331122
0.0342535
0.0325147
0.0319257
0.0312001
0.0279195
0.0290161
0.0256917
0.0268574
0.0218151
0.0242098
0.0204433
0.018863
0.0170726
0.0169175
0.0161995
0.00811072
0.0445659
0.0186711
0.0234088
0.0461097
0.0300542
0.00417048
0.00475575
0.0092978
0.00287249
0.000760552
0.000617935
0.0167812
0.00543679
0.00557077
0.00930799
0.00186578
0.0206902
0.0166953
0.0249338
0.0223909
0.0292258
0.0280101
0.030345
0.0294672
0.0317077
0.0310225
0.032459
0.0330217
0.0337189
0.032882
0.0342389
0.0346999
0.0347902
0.0345419
0.0328362
0.0338067
0.031188
0.0279375
0.0302003
0.0269781
0.0254309
0.0235313
0.0245277
0.022074
0.0197157
0.0186374
0.0185026
0.0169371
0.0159068
0.0128718
0.00586579
0.0339855
0.0213962
0.0131963
0.0449039
0.0256066
0.000231396
0.00100436
0.00427984
0.000199885
0.000392887
0.000326987
0.000570341
0.00351737
0.00259316
0.0076407
0.000323826
0.0173291
0.015104
0.0252982
0.0201178
0.0269622
0.029575
0.0286131
0.0319101
0.0304804
0.032494
0.0332006
0.0325147
0.0341668
0.0344043
0.0345744
0.034166
0.033131
0.0338638
0.0320436
0.0291834
0.0299827
0.0279894
0.0263885
0.0235758
0.025931
0.0224701
0.0213082
0.0201077
0.018721
0.0170184
0.0159301
0.0118108
0.00586919
0.0405442
0.0156102
0.00696767
0.0474103
0.031466
0.0138774
0.000588682
0.00326778
0.00124927
0.000403257
0.0011515
0.00117403
0.00101489
0.00084446
0.00138458
0.00357374
0.00864246
0.000895789
0.000641402
0.0168811
0.0105336
0.023687
0.0205983
0.0272413
0.0286802
0.0296695
0.0312707
0.0305255
0.0319007
0.0325963
0.0333336
0.0319217
0.0338064
0.034138
0.0342987
0.0340206
0.0328491
0.0332568
0.0320498
0.0289924
0.0307654
0.0276177
0.0246098
0.0268096
0.0239034
0.021708
0.020138
0.018691
0.0169312
0.0166453
0.0159507
0.0104002
0.0102797
0.0327631
0.0176735
0.0421592
0.0301577
0.00492923
0.0014314
0.00125634
0.000261419
0.000832631
0.00155621
0.00122654
0.00144196
0.000402438
0.000564729
0.00261567
0.00423501
0.00164132
0.00132007
0.0126438
0.00925922
0.0241423
0.0180853
0.0262011
0.0270014
0.0291109
0.0313009
0.0297251
0.0322438
0.0329926
0.0314968
0.0337951
0.0341076
0.033613
0.0329868
0.0315657
0.0301327
0.0280136
0.0258915
0.0267276
0.02476
0.0231476
0.0219729
0.0198612
0.0183117
0.0181007
0.0167474
0.01574
1.38451e-11
0.00991573
0.0370961
0.0142946
0.0422654
0.0191728
0.0017973
0.00113733
0.000193937
0.000985634
0.000330961
0.0012123
0.00116147
0.00106717
0.00160247
0.000647714
0.000623461
0.00104078
0.00308036
0.001584
0.00145078
0.00124807
0.0120915
0.0049753
0.0227851
0.0145451
0.019783
0.026066
0.0281564
0.0308583
0.0297374
0.0324185
0.0316329
0.0331679
0.0326621
0.0310065
0.0334964
0.0337647
0.033543
0.0331249
1.59058e-11
0.0319574
0.0302814
0.0287363
0.0260252
0.0281062
0.0245204
0.0232913
0.0216298
0.0195322
0.0193104
0.0183026
0.0158948
1.04378e-11
0.00863355
0.0311288
0.0110397
0.0171427
0.042408
0.0162198
0.000818736
0.000793407
0.00024694
0.0010195
0.000979638
0.000919775
0.00101836
0.00104561
0.000873101
0.00125662
0.0010597
0.000823809
0.00123159
0.00149512
0.00156324
0.0015005
0.0077956
0.00473336
0.0235908
0.0129107
0.0182873
0.0265471
0.0278991
0.0303631
0.0289225
0.0319446
0.0313372
0.0329087
0.0323962
0.0306964
0.0335492
0.0331905
0.0326444
0.0313424
0.0296168
0.0287798
0.0270079
0.0282171
0.0255895
0.0243995
0.0226041
0.0203755
0.0194635
0.0188275
0.0170976
0.0160934
0.0372268
0.00921005
0.0138815
0.0303335
0.0452537
0.00700686
0.000172589
2.80934e-05
0.000650046
0.000984169
0.000870577
0.00106229
0.00055383
0.000737223
0.000716325
0.000629483
0.00103653
0.00100537
0.000590331
0.001207
0.00149543
0.00171163
0.00730487
0.00188828
0.0212911
0.00953673
0.0154601
0.0243115
0.0268815
0.0300345
0.0289094
0.031542
0.0319266
0.0309331
0.0325508
0.0330447
0.0301973
0.0332699
0.0330918
0.0327797
0.0314129
0.0297463
0.0268396
0.0289226
0.0253141
0.0250634
0.0239307
0.0216177
0.0209131
0.0199633
0.0173479
0.0166583
0.0156747
0.03207
0.00925413
0.0172752
0.0256162
0.0376165
0.0137125
0.00192609
0.000579605
0.000646414
0.000577577
0.00131767
0.000659551
0.000665421
0.00054775
0.000622313
0.000665
0.000759683
0.00101096
0.000745569
0.00113922
0.00151187
0.00164594
0.00368258
0.000952683
0.0216967
0.00897834
0.0147882
0.0248313
0.0270565
0.0296321
0.0279915
0.031086
0.0316542
0.0306996
0.0322701
0.032665
0.0299837
0.0327834
0.0324301
0.0304382
0.0319913
0.0275308
0.0289108
0.0297006
0.0259567
0.0249438
0.0242034
0.0220189
0.0211399
0.0204743
0.019376
0.0178685
0.0165661
0.0159028
0.0345823
0.00616205
0.0139157
0.0385076
0.00873843
0.000139054
0.00066483
0.000608748
0.000759824
0.000502337
0.000567918
0.000436646
0.000559487
0.000604638
0.000641265
0.000640125
0.00144009
0.000637107
0.000963934
0.00121446
0.00141741
0.0016854
0.002965
0.00071468
0.019388
0.00490067
0.0113738
0.0165207
0.0238285
0.026173
0.0293476
0.0280121
0.0310452
0.0313824
0.0319126
0.0303364
0.0325586
0.0296283
0.0300491
0.032624
0.0324426
0.0303449
0.031859
0.0268696
0.0283919
0.0297295
0.026326
0.0254748
0.023242
0.022378
0.0221126
0.0194363
0.01783
0.0168823
0.0161272
0.0381681
0.030103
0.00533123
0.0180583
0.0112653
0.031939
0.00241025
0.0133956
0.000664229
0.000629936
0.000564331
0.000609576
0.000456053
0.00045486
0.000400324
0.000546565
0.000460149
0.000604073
0.000648281
0.000607383
0.000674801
0.0012017
0.00106048
0.000724783
0.00120919
0.00132943
0.00171052
0.00103861
0.000799143
0.0205115
0.00434812
0.0109556
0.0141466
0.022817
0.0269074
0.0286579
0.0307407
0.0312242
0.031716
0.0301887
0.0321928
0.0292153
0.0297059
0.0324938
0.0322527
0.0310396
0.0315696
0.0272027
0.0287647
0.0300577
0.0264391
0.0254523
0.0233904
0.0227637
0.0227352
0.0205053
0.0187568
0.0183912
0.0167587
0.0158113
0.0387425
0.0345582
0.00295113
0.0145042
0.0103763
0.0342157
0.000297742
0.00349199
0.000675347
0.000586071
0.000518289
0.000418587
0.000434698
0.0003891
0.000375271
0.000355452
0.000426284
0.000543453
0.000666259
0.000577683
0.000646888
0.00162805
0.000750328
0.000831983
0.00159828
0.000961333
0.000845991
0.000925253
0.0192796
0.0059603
0.00198017
0.00817386
0.0141643
0.023547
0.026758
0.0284887
0.0304387
0.0308233
0.0313507
0.0319204
0.0297436
0.0301576
0.0293523
0.0320021
0.0319518
0.0306873
0.0316674
0.0280681
0.0294054
0.0299239
0.02767
0.0243702
0.0263073
0.024124
0.0239753
0.0219355
0.0199678
0.0194605
0.0181198
0.0166298
0.0161132
0.0377714
0.032048
0.00961218
0.0109189
0.0188808
0.00986082
0.0213834
0.00137457
0.000666022
0.000627862
0.000421314
0.000415935
0.000344745
0.000354979
0.000326301
0.000321833
0.000322526
0.00038542
0.000484636
0.000595376
0.000659742
0.000506205
0.000666856
0.0015431
0.000723537
0.000817052
0.00155964
0.000922029
0.000896956
0.0011001
0.00148852
0.0159949
0.0215694
0.00319116
0.0094344
0.0256437
0.0278265
0.030169
0.0305466
0.0310905
0.0316718
0.0293892
0.0297836
0.0291841
0.0319008
0.0316668
0.0308427
0.0313052
0.0282764
0.0295403
0.0304393
0.0277994
0.0272482
0.0259043
0.0248484
0.0245297
0.0246954
0.0220357
0.0209719
0.0192684
0.0207089
0.0180053
0.0172544
0.0158856
0.0392546
0.0363931
0.0100267
0.0155394
0.00782469
0.0192255
0.00125547
0.000660326
0.00060827
0.00033358
0.000364024
0.000303417
0.000306818
0.000286121
0.000275535
0.000288423
0.000336241
0.00039627
0.000542211
0.000657985
0.000451198
0.000666114
0.000693002
0.00156003
0.000731973
0.00100061
0.000969912
0.000794434
0.00177994
0.0150661
0.021707
0.00309151
0.00786978
0.0261757
0.0277359
0.0298614
0.0302255
0.0306882
0.0313564
0.0294288
0.0297478
0.0289814
0.0313941
0.0313708
0.0290735
0.0303336
0.0286201
0.027647
0.0263451
0.0255756
0.0241554
0.0256681
0.0230515
0.0205363
0.0217189
0.0189378
0.0187827
0.0171187
0.0157658
0.031299
0.0352297
0.00808598
0.0214001
0.0124996
0.00788255
0.0132672
0.000169277
0.000795797
0.000468613
0.000298516
0.000320938
0.000277475
0.000281155
0.000263689
0.0002408
0.000242321
0.000300278
0.000332129
0.000483453
0.00057913
0.000668825
0.000367358
0.000689995
0.00122065
0.00174019
0.00071148
0.000785438
0.00151756
0.00133391
0.0166624
0.0128309
0.0237281
0.0189994
0.00429732
0.00953232
0.0258307
0.0286708
0.0296038
0.0299586
0.0304369
0.0310526
0.0292321
0.0294083
0.0289225
0.0311689
0.0312138
0.0292838
0.0306208
0.0283528
0.0271394
0.0261595
0.0249433
0.0227041
0.0215348
0.0202441
0.0199709
0.0188746
0.0167076
0.0158494
0.032553
0.0362271
0.00765987
0.0192247
0.00813295
0.00793976
0.000554892
0.000607828
0.000366646
0.000265951
0.000301143
0.000230441
0.000268857
0.000245879
0.000212007
0.00021774
0.000277953
0.000315765
0.000446605
0.000542541
0.000653246
0.000325143
0.00067236
0.0012717
0.00163691
0.000682719
0.000817001
0.00158172
0.000830677
0.0138245
0.023194
0.0191954
0.00370967
0.00604932
0.0269649
0.0280321
0.029283
0.0294888
0.0300695
0.030498
0.0307733
0.0290933
0.0292596
0.0287834
0.0307662
0.02982
0.0303901
0.0286584
0.0274269
0.0257358
0.0268331
0.0244285
0.0234185
0.0227044
0.0209733
0.0200349
0.0190958
0.0181933
0.0164871
0.0155298
0.0236533
0.0349547
0.00345234
0.0154072
0.0225557
0.00633821
0.00196867
0.000231401
0.000657509
0.000296247
0.000213775
0.000287378
0.000206564
0.000243405
0.000216795
0.000185037
0.000186243
0.000263493
0.000304443
0.000485426
0.000358881
0.000575316
0.000309745
0.000665644
0.000997858
0.00166465
0.000685269
0.000694161
0.00149881
0.000765249
0.00132487
0.0135284
0.0208564
0.0246721
0.0161512
0.00251859
0.00661497
0.0262532
0.0283593
0.0289805
0.0292048
0.0296988
0.029984
0.0305776
0.0306432
0.0289985
0.0289953
0.0286563
0.0287995
0.0297873
0.0281878
0.029297
0.0262646
0.0270111
0.0249223
0.0229404
0.0220765
0.0211329
0.0204472
0.0191214
0.0177424
0.0164375
0.0157017
0.0227423
0.0346496
0.0128673
0.0235719
0.00204997
9.76494e-05
0.000297386
0.000621243
0.00026457
0.00019186
0.000269489
0.000285958
0.000177436
0.000229473
0.000180938
0.0001751
0.000159915
0.00017428
0.000238796
0.00045575
0.000333457
0.000515799
0.000302661
0.000644107
0.00113789
0.0016409
0.00069228
0.000714094
0.00212571
0.000926198
0.000659089
0.00851144
0.0202773
0.0242091
0.0164565
0.00367773
0.0271441
0.0279218
0.028861
0.0288905
0.0289689
0.0292243
0.0294084
0.0298193
0.0302245
0.0302537
0.0284911
0.028692
0.0283067
0.0294288
0.0259813
0.0276416
0.0240974
0.0221618
0.0205871
0.0189919
0.0179149
0.0164913
0.015558
0.0120143
0.0212218
0.0304909
0.0197354
0.0103073
0.0327736
0.000120855
0.00061902
0.00029543
0.000207935
0.000156318
0.000179489
0.000251143
0.000268222
0.000156643
0.00019619
0.000167213
0.00015047
0.000160216
0.00014556
0.000148084
0.000221086
0.000368149
0.000315224
0.00050639
0.0002813
0.000649381
0.000555843
0.00090181
0.00176429
0.000693194
0.000747236
0.00175793
0.000889075
0.00742285
0.0222126
0.0253119
0.0158131
0.00370558
0.0269333
0.0281371
0.0286279
0.0286145
0.0285891
0.0287429
0.0292095
0.0299672
0.0294315
0.0301452
0.0284299
0.028884
0.0297885
0.0263353
0.0276977
0.0242128
0.0230462
0.0214839
0.0201611
0.0188793
0.0179987
0.016132
0.0152563
0.0146635
0.0312033
0.0185202
0.0122461
8.20836e-05
0.000560153
0.000197886
0.00020058
0.000135675
0.000148359
0.000233915
0.00026594
0.000137826
0.000178579
0.000158575
0.000137792
0.000143824
0.000137816
0.000190647
0.000352436
0.000306447
0.00038774
0.000279583
0.000579916
0.000499063
0.00111775
0.00159361
0.000689258
0.000752936
0.00170284
0.000731434
0.00828581
0.0222024
0.0265451
0.0244529
0.0117937
0.018794
0.00133747
0.0277926
0.0283575
0.0284527
0.0284083
0.0283554
0.0286045
0.0288727
0.0291927
0.0295981
0.0293348
0.0282744
0.0288399
0.0259613
0.0271616
0.0282372
0.0249881
0.0230461
0.0223854
0.0211888
0.0198771
0.0188144
0.0184289
0.017583
0.0160655
0.0152959
0.00870314
0.0233679
0.0277503
0.0195112
0.00844976
0.000605724
8.48859e-05
0.000212554
0.000186152
0.00012086
0.000133418
0.000224198
0.000242309
0.000124201
0.000163579
0.000145193
0.000123922
0.000139119
0.000126259
0.000177778
0.000318388
0.000371868
0.000257384
0.000559468
0.000416842
0.000911376
0.00173324
0.000711697
0.000671201
0.00179413
0.000832131
0.00501651
0.0214844
0.0270354
0.0249965
0.012149
0.0182732
0.00247204
0.0279934
0.028212
0.0282811
0.028127
0.0280414
0.0281327
0.0284887
0.0288162
0.029352
0.0288572
0.028044
0.0290885
0.026374
0.0273359
0.0280167
0.0246579
0.0237244
0.0230564
0.0219095
0.0210035
0.019991
0.019654
0.0175822
0.0158723
0.0149613
0.00199001
0.0210062
0.029113
0.0175893
0.00218922
0.000515876
6.99852e-05
0.000142223
0.000143086
0.000186928
0.000117011
0.000110973
0.000113401
0.000192438
0.000235887
0.00011453
0.000155865
0.000134496
0.000116738
0.000120164
0.000125573
0.000119416
0.000164961
0.000308669
0.000330047
0.000258194
0.000429474
0.000591599
0.00109242
0.00161607
0.00070698
0.00069031
0.00160823
0.000767629
0.00599479
0.0232289
0.0262036
0.0276964
0.00856755
0.0153792
0.0207216
0.00103945
0.0281205
0.0280329
0.0280115
0.0277389
0.0279045
0.028127
0.0286959
0.0286772
0.0278612
0.026905
0.0262666
0.0280735
0.0251432
0.0229716
0.0218488
0.0209622
0.0203602
0.0184247
0.017135
0.0157565
0.0151075
0.000764193
0.0225168
0.00719897
0.0252184
0.0277377
0.0183865
0.0140305
0.0018796
0.000661798
0.000148808
0.000370181
0.000122752
0.000185353
0.000103022
9.80671e-05
0.000102176
0.000182705
0.000195911
0.000102655
0.000142563
0.000122343
0.000134831
0.000103543
0.000107471
0.000106795
0.000163872
0.000288961
0.000323893
0.000225519
0.000379548
0.000491199
0.000940869
0.00176513
0.000632624
0.000758812
0.000664414
0.00181958
0.000868373
0.00284067
0.0228659
0.0263631
0.0277753
0.00928729
0.0157655
0.0206316
0.027989
0.0278472
0.0277716
0.0274964
0.0276306
0.0279282
0.0282107
0.0284141
0.0275412
0.0269022
0.0259148
0.0275339
0.0248749
0.0234303
0.0228076
0.0219512
0.0214813
0.0197434
0.0181584
0.0170708
0.0157394
0.0148767
0.019355
0.00436128
0.0251473
0.0281884
0.0159157
0.0132835
0.0144291
0.000310065
1.19324e-05
0.000123415
0.000106674
0.00013823
0.000192963
9.92518e-05
9.72457e-05
9.01765e-05
9.87827e-05
8.86514e-05
0.000182104
9.65735e-05
0.00013868
0.000114704
0.000120122
0.000101357
0.000102223
0.000153014
0.00028491
0.00030206
0.000339183
0.00019825
0.000238217
0.00041648
0.000530891
0.0012453
0.0016767
0.000649881
0.000740134
0.000701049
0.00161065
0.000844404
0.00342992
0.0241703
0.0255714
0.0272377
0.0276588
0.00600551
0.0129605
0.0189132
0.0230132
0.0278732
0.0276654
0.027374
0.0273483
0.0274859
0.0275715
0.0275649
0.0279104
0.0279812
0.0270951
0.0270431
0.0260988
0.0276037
0.0241927
0.0255398
0.0232523
0.0229778
0.0220012
0.0221444
0.0201814
0.0192237
0.0181357
0.0170723
0.015683
0.0149999
0.0241611
0.0104205
0.0186547
0.0269258
0.0118447
0.000254535
7.9781e-05
0.000101287
0.000117491
0.00017797
8.78621e-05
8.7787e-05
8.27815e-05
8.69871e-05
8.10098e-05
0.000157754
0.000185551
8.89652e-05
0.00012607
0.000107188
0.000117957
9.1009e-05
9.4055e-05
0.000263514
0.000291976
0.000334496
0.000183533
0.000215526
0.000370168
0.000438232
0.00116811
0.00183593
0.000760298
0.000544124
0.000707354
0.000760197
0.00177526
0.00172256
0.000706194
0.0261667
0.0270892
0.0277665
0.00765642
0.0139477
0.0194391
0.0235777
0.0276471
0.0274732
0.0270925
0.0269669
0.0271253
0.0271413
0.0275004
0.0272671
0.0274082
0.0267557
0.0266379
0.0272778
0.0242053
0.0254714
0.0235813
0.0230268
0.0230907
0.0218997
0.0210402
0.0192389
0.0181761
0.0170857
0.0155787
0.0146613
0.0195873
0.00345139
0.0173202
0.026958
0.0126596
0.000274199
0.000188839
1.46822e-05
0.000106579
8.79886e-05
8.3344e-05
7.61434e-05
7.89887e-05
8.20013e-05
7.41023e-05
0.000143708
0.000158334
8.58391e-05
0.000123876
0.000101342
0.000109813
8.76318e-05
9.06097e-05
9.32482e-05
0.000261923
0.000299626
0.000274345
0.000314395
0.000158889
0.000192471
0.000232012
0.000388578
0.000468131
0.00147478
0.00176729
0.000761676
0.000588066
0.000702851
0.000800441
0.00149992
0.00231028
0.000873813
0.0256236
0.0274961
0.0275898
0.0276064
0.0117975
0.0057641
0.0172987
0.0221893
0.0272843
0.0268095
0.026801
0.0268942
0.0269162
0.0269006
0.0271969
0.0267544
0.0263565
0.0267737
0.0247896
0.0259043
0.0243765
0.0236042
0.0224809
0.0211318
0.0203959
0.019297
0.0182298
0.0168152
0.0154684
0.0148247
0.0220008
0.0010436
0.0173647
0.0276259
0.0226976
0.00852239
0.000268787
0.000139071
1.26317e-05
9.54659e-05
8.42823e-05
7.64303e-05
7.16075e-05
7.22163e-05
7.33711e-05
6.96357e-05
0.000129295
7.86072e-05
0.000111588
0.00010352
8.14998e-05
8.25488e-05
8.93883e-05
0.000285306
0.000265515
0.000326173
0.000138364
0.000184335