/*--------------------------------*- C++ -*----------------------------------*\
| =========                 |                                                 |
| \\      /  F ield         | OpenFOAM: The Open Source CFD Toolbox           |
|  \\    /   O peration     | Version:  v1912                                 |
|   \\  /    A nd           | Website:  www.openfoam.com                      |
|    \\/     M anipulation  |                                                 |
\*---------------------------------------------------------------------------*/
FoamFile
{
    version     2.0;
    format      ascii;
    class       volScalarField;
    location    "10000";
    object      omega;
}
// * * * * * * * * * * * * * * * * * * * * * * * * * * * * * * * * * * * * * //

dimensions      [0 0 -1 0 0 0 0];


internalField   nonuniform List<scalar> 
71770
(
1.48244e+09
1.48247e+09
1.48248e+09
1.48245e+09
1.4824e+09
1.4824e+09
1.4824e+09
1.4824e+09
1.48242e+09
1.48257e+09
1.48261e+09
1.48246e+09
1.48242e+09
1.4824e+09
1.48241e+09
201371
264292
6.68434e+07
2.61447e+07
6.34343e+06
1.21884e+07
2.3275e+08
2.32752e+08
3.56237e+06
630201
893613
463405
1.33909e+06
2.12442e+06
348404
6.68438e+07
2.61447e+07
1.21882e+07
6.34292e+06
34247.5
92144.1
118937
117758
91613.8
71685.9
56337.8
90369.8
70755.2
55709.6
54409.6
116267
44431.4
44046.5
43081.7
201022
263401
154230
199981
153522
152443
118627
92187
71969.5
56399.3
198884
150872
197527
69108
88445.5
114257
69234.3
892707
629019
462058
461484
629009
347144
346119
345947
33070.4
32902.1
33010.3
33489.8
262220
261405
260693
33531.8
67984.8
87564.6
53314.3
88564.5
68150.6
42150.6
41695.6
53030.6
53450.2
41716.3
54355.3
42131.3
43024.3
1.34119e+06
464270
1.21882e+07
3.56256e+06
2.12456e+06
2.12634e+06
1.34534e+06
899585
634194
3.56387e+06
346403
2.61449e+07
6.68453e+07
2.32757e+08
2.61453e+07
1.21885e+07
6.34314e+06
6.68465e+07
2.61459e+07
1.21891e+07
6.34403e+06
150151
205276
199488
274156
279604
266620
90573
210272
154083
116316
158248
119414
642476
470016
349323
480564
357368
366214
490017
1.35441e+06
909099
3.56628e+06
2.12972e+06
3.57166e+06
2.13716e+06
654583
663739
371748
261297
495401
668778
2.32761e+08
2.32764e+08
2.61466e+07
1.21901e+07
6.34559e+06
6.68474e+07
2.32758e+08
1.21918e+07
6.68444e+07
1.21936e+07
2.61472e+07
2.32751e+08
2.61469e+07
6.6846e+07
6.34898e+06
3.57733e+06
6.3525e+06
2.14944e+06
2.14533e+06
1.36496e+06
921196
1.371e+06
929105
2.1518e+06
1.37441e+06
933481
2.61476e+07
1.21943e+07
3.57988e+06
6.35395e+06
2.3275e+08
6.68445e+07
6.68446e+07
2.3275e+08
2.61478e+07
3.58136e+06
3.58272e+06
2.15387e+06
1.21948e+07
6.35479e+06
1.21952e+07
6.35562e+06
2.6148e+07
6.68447e+07
92882.8
122422
95611.9
214039
217614
283393
161767
165297
125658
70798
72893.8
286789
378531
936513
941140
500021
672640
673184
499101
1.37723e+06
936902
672458
375468
2.3275e+08
938508
674640
501754
1.37821e+06
2.15434e+06
1.37633e+06
3.5829e+06
6.35569e+06
1.21953e+07
2.32753e+08
6.68454e+07
2.61483e+07
3.58168e+06
2.1527e+06
3.58715e+06
1.38312e+06
2.15949e+06
1.21958e+07
6.35514e+06
2.61506e+07
2.32777e+08
6.68524e+07
97945.9
127942
57458.8
74976.1
96202.2
120120
218676
162445
167155
124854
157597
212432
208814
286806
57142.3
74151.9
496285
967212
508932
693706
377512
371082
376222
279727
279321
92279.3
71233.3
55108.7
89135.6
68574.8
116924
207540
154992
42695.6
1.4103e+06
705639
379960
516541
982005
1.42461e+06
280139
6.35891e+06
1.21981e+07
2.32784e+08
6.68545e+07
2.61522e+07
6.68494e+07
2.32761e+08
2.1835e+06
3.60556e+06
6.37116e+06
3.61228e+06
2.19446e+06
1.22047e+07
2.61536e+07
6.3743e+06
1.22056e+07
1.33846e+06
893120
2.124e+06
1.33904e+06
895282
630665
462237
3.56212e+06
6.3428e+06
114043
196597
149130
55805.5
44202.5
44089.8
2.32754e+08
6.68444e+07
1.48248e+09
189052
139609
260084
363106
6.42025e+06
1.2233e+07
2.61641e+07
6.68471e+07
2.32753e+08
2.26368e+06
3.67415e+06
1.02431e+06
1.48728e+06
721845
511364
1.48248e+09
2.61534e+07
6.68493e+07
2.32763e+08
4391.31
2498.35
12335.5
2253.92
1934.21
18437.3
7670.29
3393.59
1653.92
1885.88
1622.02
16096
10853.8
2542.75
1710.61
1459.79
1632.56
1469.82
1528.7
14834.2
15503
9803.34
3019.39
1478.69
1331.1
1519.45
1336.3
1432.67
1430.83
13570.3
12945.9
5794.18
2091.19
1581.86
1356.81
1262.43
1282.94
1413.88
1335.46
1262.58
1373.43
1358.26
1376.16
13453.3
4610.66
2422.72
1438.93
1297.26
1304.73
1230.77
1241.52
1280.03
1213.16
1308.63
1299.04
1323.23
1342.05
8129.84
9507.03
2122.9
1558.43
1334.85
1280.38
1305.7
1204.23
1234.89
1235.54
1206.95
1195.17
1279.73
1248.71
1260.02
1291.33
1304.06
8244.2
6979.96
3195.05
1476.67
1337.82
1266.7
1308.84
1204.02
1249.16
1219.33
1217.41
1179.84
1177.12
1235.07
1217.83
1241.84
1265.9
1283.32
8845.64
4345.42
7488
2276.2
1360.85
1639.89
1356.23
1297.71
1350.74
1192.5
1256.92
1230.8
1187.57
1166.37
1177.87
1182.51
1203.49
1218.14
1239.41
1271.62
9176.08
4026.66
3775.72
1379
1426.54
1403.6
1326.2
1396.97
1204.69
1280.71
1227.85
1153.02
1170.08
1165.71
1175.27
1200.68
1236.86
1230.7
1241.61
7630.13
6434.29
2554.83
1400.37
1432.41
1455.02
1418.18
1310.95
1372.77
1401.21
1446.79
1204.58
1281.17
1251.45
1144.38
1158.14
1182.08
1148.37
1151.99
1168.14
1203.92
1218.15
1255.16
7981.74
3649.39
5867.26
1607.69
1440.61
1423.06
1516.23
1486.76
1350.64
1391.74
1465.85
1496.87
1226.29
1316.81
1254.93
1137.87
1154.49
1171.21
1141.08
1148.36
1173.44
1183.63
1223.64
1247.07
7017.52
6150.57
3051.44
1634.3
1498.51
1466.69
1534.49
1574.43
1351.24
1440.17
1493.28
1568.71
1237.42
1318.1
1288.44
1132.92
1142.18
1177.63
1135.34
1153.77
1161.67
1187.81
1224.71
1256.38
5436.66
6429.03
2131.3
1500.82
1562.9
1529.17
1607.66
1647.77
1391.95
1439.53
1552.05
1627.91
1283.29
1226.49
1354.4
1129.5
1142.16
1158.67
1198.73
1131.46
1136.86
1143.45
1166.74
1184.58
1229.94
1253.27
5989.09
4605.22
2242.48
1528.25
1637.21
1577.8
1572.55
1721.08
1388.13
1484.12
1567.89
1608.54
1715.07
1316.02
1241.73
1357.02
1128.44
1133.64
1159.77
1209.5
1126.95
1133.56
1145.66
1164.79
1189.25
1238.24
1273.83
5923.89
4288.32
1701.4
1538.47
1711.82
1671.48
1653.71
1766.53
1763.48
1430.47
1472.9
1534.54
1638.7
1668.95
1762.92
1314.54
1273.61
1404.86
1134.23
1173.55
1144.13
1202.21
1126.98
1127.75
1140.26
1148.97
1172.69
1200.82
1257.52
1286.93
5607.32
2742.52
2374.13
1618.84
1566.5
1743.34
1736.05
1846.95
1861.83
1522.02
1563.11
1675.88
1725.4
1826.33
1375.74
1272.05
1420.08
1173.16
1149.62
1225.49
1131.56
1135.71
1148.18
1179.04
1156.56
1205.32
1229.14
1266.54
1291.64
5757.44
2385.16
1990.15
1521.47
1671.99
1821.28
1824.01
1897.73
1881.9
1905.05
1538.24
1609.99
1655.28
1740.83
1772.28
1877.13
1821.48
1397.42
1301.53
1494.43
1188.75
1142.05
1221.19
1140.98
1146.33
1173.96
1161.15
1198.62
1223.65
1239.09
1280.74
1310.69
4049.47
4070.38
1346.58
1557.5
1527.65
1709.93
1847.83
1862.48
1958.63
1929.92
1972.77
1603.71
1713.99
1774.89
1755.85
1937.56
1870.82
1471.88
1376.54
1336.44
1272.49
1507.22
1193.56
1148.34
1244.84
1158.01
1180.05
1167.55
1163.4
1188.74
1209.04
1226.54
1254.75
1318.53
4169.28
4177.49
667.001
1527.19
1642.29
1817.54
1913.97
1896.25
1863.53
1959.25
1989.99
1923.68
1995.06
1979.69
1646.34
1718.93
1841.64
1819.75
1929.82
1492.2
1401.55
1355.54
1294.12
1580.11
1220.61
1169.33
1173.75
1183.14
1175.55
1177.44
1199.09
1212.43
1233.07
1248.07
1295.01
1328.63
3533.94
3678.99
1318.86
1557.2
1649.42
1714.37
1817.65
1908.67
1870.43
1873.98
1976.2
2002.31
1933.84
2019.38
2024.29
1638.92
1771.01
1868.5
1831.34
1977.22
1575.49
1453.63
1342.81
1286.55
1236.84
1197.69
1196.65
1191.72
1204.52
1207.73
1225.96
1259.74
1234.63
1298.14
1320.99
1346.48
3982.57
3979.22
2290.1
869.461
1608.67
1714.56
1819.43
1917.82
1818.61
1821.9
1950.96
1981.76
2016.24
2032.69
2038.07
1715.26
1767.2
1933.61
1893.86
2020.01
1622.01
1472.85
1371.91
1314
1259.69
1221.38
1208.56
1204.94
1216.29
1218.26
1258.73
1242.35
1274.85
1296.37
1328.48
1347.44
2903.6
3990.31
1882.02
1080.27
1582.85
1794.11
1814.41
1801.75
1852.08
1732.55
1800.49
1739.44
1928.3
1945.81
2011.18
2052.05
2070.29
1727.38
1819.39
1959.24
1891.49
2039.17
1615.58
1691.54
1429.14
1562.8
1345.77
1297.65
1272.18
1246.19
1232.19
1224.77
1221.43
1223.93
1252.59
1245.15
1277.55
1301.57
1335.88
1361.07
3365.81
2878.43
1587.85
622.138
1702
1776.42
1780.41
1783.86
1818.66
1670.83
1703.42
1642.64
1862.97
1935.5
1973.44
2027.22
2069.19
2083.99
1809.17
2015.05
1959.11
2049.9
1698.27
1447.88
1567.79
1363.84
1325.8
1251.81
1251.79
1245
1234.26
1239.37
1257.69
1257.45
1244.86
1266.37
1289.43
1315.54
1348.01
1368.48
3415.93
2585.79
1510.41
454.713
1632.67
1765.12
1771.72
1688.65
1729.46
1567.34
1670.04
1535.08
1795.94
1855.73
1930.89
2014.54
2070.38
2091.26
1849.21
2032.01
2017.25
1927.92
2091
1749.34
1517.35
1409.2
1636.93
1321.2
1285.58
1282.92
1266.79
1259.53
1269.42
1270.11
1275.02
1296.49
1313.71
1327.09
1353.77
1372.55
1860.52
3216.5
1757.81
1661.48
1664.9
1673.36
1547.24
1715.24
1495.66
1490.86
1551.15
1362.54
1792.22
1843.36
1953.29
2037.84
2082.65
2105.82
1833.77
2076.64
2060.54
1959.51
1752.97
1533.15
1433.11
1708.54
1605.81
1354.85
1307.55
1302.97
1282.91
1280.75
1282.64
1280.43
1296.4
1304.1
1321.42
1331.4
1367.43
1392.13
1839.15
3282.14
1573.86
1554.76
1636.91
1597.05
1597.73
1549.59
1364.02
1653
1360.01
1349.51
1491.26
1260.91
1679.58
1793.41
1914.29
2015.76
2088.35
2110.4
1889.49
2099.26
2068.24
2019.08
1856.24
1497
1402.32
1750.03
1639.49
1341.99
1332.95
1321.41
1307.3
1302.35
1292.92
1312.03
1330.34
1350.22
1380.2
1398.48
848.399
2648.73
2481.52
1482.29
1579.51
1356.94
1434.61
1384.05
1206.91
1551.98
1288.23
1265.39
1327.39
1126.43
1634.84
1685.59
1829.09
1940.03
2044.14
2129.12
2128.57
2116.86
2036.76
1883.14
1514.7
1416.86
1713.99
1821.97
1585.08
1371.47
1370.54
1341.41
1343.16
1312.74
1334.27
1317.03
1308.18
1316.91
1339.39
1326.76
1359.9
1392.97
1416.64
725.805
2728.08
2536.79
1968.38
1532.89
1383.11
1597.94
1284.78
1274.35
1226.25
948.979
1459.06
1119.79
1104.98
1272.28
1013.41
1501.05
1623.88
1788.26
1872.52
2038.43
2143.01
2142.48
2143.56
2089.97
2012.55
1953.5
1459.08
1768.37
1839.02
1602.21
1402.14
1387.4
1392.99
1339.34
1357.37
1319.54
1340.04
1318.34
1342.07
1337.78
1359.35
1378.65
1405.21
1422.02
1114.23
2265.4
1830.67
1512.11
1452.81
970.672
1064.14
1046.12
887.614
886.367
1333.23
1040.35
987.798
1187.64
830.168
1424.23
1495.72
1687.15
1825.72
1860.99
1961.41
2086.87
2123.26
2161.05
2167.25
2101.72
2058.13
1916.23
1454.98
1758.48
1551.66
1679.86
1410.98
1417.28
1394.29
1346.41
1362.26
1341.18
1354.41
1347.74
1368.47
1359.06
1387.4
1417.42
1439.95
608.147
2446.24
1545.79
2330.51
1401.73
1224.83
800.242
931.862
892.005
649.121
676.252
1205.42
852.653
838.63
1034.18
679.189
1282.49
1447.41
1658.9
1805.76
1881.05
1956.88
2069.91
2112.06
2167.19
2188.49
2137.71
2068.43
1950.88
1494.06
1821.48
1586.41
1658.55
1467.63
1468.11
1420.91
1357.64
1397.65
1371.8
1369.96
1372.97
1374.48
1384.43
1402.36
1427.16
1451.73
1259.52
1595.42
2166.68
1244.86
1354.86
584.336
670.228
650.519
486.438
528.21
1191.16
768.806
706.627
910.859
550.215
1194.33
1524.4
1324.28
1737.33
1599.91
1809.89
2023.95
1910.28
2133.26
2185.51
2202.74
2128.74
2028.8
1908.45
1794.3
1551.21
1708.86
1493.32
1503.84
1482.14
1395.84
1417.92
1395.29
1398.65
1382.67
1389.88
1393.81
1409.22
1432.35
1445.03
1459.41
981.079
1391.07
2135.32
1044.59
1384.91
1164.12
457.206
517.53
598.195
441.339
371.285
404.136
1042.74
589.674
625.698
745.179
438.395
1226.1
1041.66
1445.64
1319.34
1704.44
1620.64
1842.59
1737.89
2016.75
1939.04
2121.88
2191.91
2207.68
2208.42
2163.83
2037.24
1951.2
1840.93
1564.72
1690.98
1514.06
1413.44
1478.45
1417.62
1402.14
1399.54
1405.53
1405.33
1416.3
1424.51
1432.49
1458.67
1479.72
1409.5
322.861
1565.5
2175.26
717.902
1323.41
1042.88
314.153
359.722
387.705
325.376
303.123
323.83
327.24
540.365
519.927
691.66
345.125
1085.96
983.161
1472.92
1222.58
1566.17
1793.81
1689.23
2065.73
1905.1
2159.03
2231.98
2218.14
2151.12
2088.38
1921.19
1814.55
1617.12
1744.05
1580.97
1467.87
1495.14
1455.75
1430.7
1411.76
1432.89
1417.87
1418.27
1432.8
1448.6
1469.78
1492.75
1241.76
135.854
1373.14
1633.74
525.549
1348.4
1133.87
660.696
262.462
367.329
293.536
243.673
254.239
257.755
286.045
434.883
449.928
544.52
735.298
301.65
352.55
1068.17
804.41
1399.7
1248.06
1594.62
1710.99
1819.3
2034.65
1932.53
2147.65
2242.47
2223.06
2181.9
2182.37
2082.63
1951.62
1867.66
1625.8
1695.92
1615.24
1484.66
1553.87
1461.15
1436.61
1461.55
1436.39
1431.98
1441.42
1456.17
1476.36
1490.98
1503.61
1174.04
410.135
1416.56
1630.33
1256.58
1129.56
474.539
227.532
277.739
234.898
208.41
236.373
230.53
254.108
378.17
389.908
513.727
588.028
273.475
301.664
906.606
761.85
1430.72
1148.95
1540.65
1599.89
1781.88
2073.29
1864.69
2255.45
2236.3
2177.18
2138.45
2016.28
1860.35
1703.01
1604.79
1546.87
1491.07
1463.28
1476.39
1459.14
1451.78
1459.33
1462.22
1473.11
1481.95
1505.68
1522.55
9.12541e+07
525.837
1296.67
1314.49
1253.44
726.919
305.067
191.164
218.169
201.498
212.887
185.391
203.265
195.755
235.032
341.3
353.691
409.992
539.828
246.577
280.314
303.597
880.79
611.643
1370.99
999.724
1229.8
1554.88
1708.82
2053.5
1886.16
2281.76
2225.82
2198.09
2269.07
2116.97
2146.02
2022.11
1940.77
1767.56
7.96994e+07
1678.87
1581.92
1526.72
1485.47
1534.78
1466.69
1469.86
1467.94
1468.09
1483.17
1500.29
1532.18
1.19415e+08
333.918
1299.69
511.654
1476.44
1176.15
679.959
250.146
165.718
188.936
169.24
173.208
154.452
188.541
193.2
171.821
212.154
320.94
393.072
438.252
232.469
248.618
291.642
720.978
600.88
1418.84
935.593
1171.6
1596.03
1709.17
1987.36
1802.65
2291.09
2230.81
2205.45
2271.92
2116.46
2089.78
1943.37
1761.06
1661.5
1565.79
1549.24
1524.35
1561.29
1501.55
1494.59
1492.94
1481.14
1493.24
1512.54
1523.23
1551.68
1209.94
328.488
1072.29
891.32
1233.36
492.76
223.169
189.5
138.28
158.035
147.312
151.55
130.816
157.892
165.811
148.733
196.125
334.337
388.679
210.007
236.84
269.679
699.077
507.861
1314.28
799.359
1056.3
1478.31
1643.2
1981.68
1821.53
2280.67
2295.74
2190.57
2247.82
2169.01
2049.59
2101.65
2032.31
1846.38
1704.07
1595.95
1535.12
1606.24
1505.95
1518.51
1518.09
1490.86
1505.09
1516.7
1531.21
1554.21
1572.84
1164.43
366.786
1151.4
807.5
1007.16
609.076
278.042
171.361
161.053
127.326
145.867
123.076
118.475
111.891
144.079
149.745
167.413
331.876
399.766
205.238
241.716
265.864
567.327
430.094
1340.96
775.234
1028.53
1517.46
1667.92
1915.14
1742.12
2281.1
2307.75
2211.53
2243.32
2185.92
2047.91
2055.5
1845.01
1652.77
1784.65
1576.38
1628.38
1651.28
1536.06
1531.37
1543.22
1508.54
1517.43
1530.97
1532.88
1549.48
1568.81
1583.1
1092.27
160.327
1089.46
997.629
486.869
207.612
150.818
119.455
116.45
106.425
110.431
100.968
99.682
122.89
133.18
154.347
302.478
364.638
192.371
216.164
236.684
279.345
537.401
388.206
1245
621.612
890.05
1114.36
1472.78
1616.39
1907.78
1760
2318.24
2328
2274.55
2185.3
2146.88
1970.39
2100.48
2024.27
1897.6
1678.09
1823.02
1567.88
1617.47
1677.14
1582.52
1586.99
1531.34
1536.21
1552.34
1542.86
1558.66
1580.16
1595.02
1035.21
1110.25
132.595
1239.7
546.914
811.896
255.95
554.981
165.505
115.276
103.74
101.674
91.6096
91.7055
81.8102
100.707
88.3352
110.811
137.354
115.087
157.421
319.7
199.934
172.679
215.047
227.704
269.525
436.97
388.763
1307.17
599.767
872.415
1015.31
1425.42
1679.45
1826.95
2328.25
2338.95
2265.03
2210.57
2155.41
1943.01
2068.99
1958.51
2085.29
1762.21
1820.62
1602.93
1667.66
1714.75
1609.5
1607.76
1547.51
1555.25
1584.57
1557.97
1562.27
1573.69
1598.82
1616.83
1016.03
1035.92
118.247
1013.12
413.623
837.023
180.003
467.158
148.847
100.784
94.9051
78.2867
83.489
77.0981
74.2377
71.471
84.8466
99.356
123.801
103.87
141.15
290.634
172.219
184.441
254.987
199.417
413.806
346.746
1257.28
667.781
515.305
770.357
1013.7
1478.58
1680.92
1833.98
2323.91
2350.23
2300.08
2205.66
2119.09
2261.81
1998.27
1948.41
2065.53
1761.55
1889.15
1650.5
1716.84
1736.21
1680.89
1580.55
1658.06
1590.31
1624.24
1577.27
1565.69
1584.32
1598.41
1614.27
1627.43
930.69
1005.14
21.6151
534.824
1051.03
91.2715
637.983
268.998
158.123
114.365
77.8524
82.7677
68.6985
68.9166
64.462
60.7481
61.273
79.03
91.1813
108.609
129.433
94.021
150.554
291.772
169.307
180.689
257.153
193.524
363.332
441.808
307.91
1110.98
1380.84
556.895
813.138
1606.56
1778.64
2359.21
2359.7
2288.22
2179.23
2091.49
2243.97
2001.51
2001.25
2117.94
1821.01
1889.88
1696.64
1771.9
1803.19
1720.74
1708.71
1661.77
1623.88
1664.27
1637.38
1598.2
1584.27
1596.88
1594.07
1608.81
1626.63
1649.71
927.427
947.673
285.453
963.91
23.1623
615.977
201.342
131.789
104.02
67.7955
76.2396
56.5672
61.4826
53.8184
52.0448
53.0962
67.5601
80.6747
99.995
122.792
87.6265
147.049
159.046
252.531
168.652
203.965
349.38
395.592
287.196
1074.47
1396.9
544.421
759.218
1659.84
1787.04
2352.62
2377.06
2332.15
2222.29
2145.68
2298.72
1981.11
1957.85
2106.39
1765.75
1841.71
1800.04
1766.69
1706.01
1706.62
1666.27
1686.68
1635.37
1620.15
1622.25
1617.84
1627.35
1637.69
1660.19
770.366
916.158
209.025
984.705
453.195
11.1897
372.632
152.243
126.8
81.7923
55.8655
64.5961
50.5617
52.963
48.7079
44.3936
44.8358
59.8492
72.8676
91.6348
106.203
130.71
77.4421
154.992
225.356
273.644
163.648
180.716
309.744
424.505
1146.74
987.441
1518.18
1268.4
610.913
834.233
1648.42
1900.22
2378.04
2400.32
2341.53
2174.09
2141.15
2281.53
2036.11
1976.23
2047.57
1833.87
1910.2
1821.17
1756.02
1756.77
1722.17
1642.97
1634.56
1628.03
1643.51
1649.7
1660.56
1674.76
785.785
852.088
46.795
963.67
227.345
310.145
127.486
92.6063
72.1525
48.1722
59.8807
42.703
49.8926
44.898
38.8114
40.304
52.3207
64.9235
86.9636
100.205
124.171
71.6702
133.828
228.683
262.643
148.576
181.823
300.454
394.468
1029.42
1498.41
1286.3
587.52
701.551
1746.94
1856.19
2342.7
2409.94
2394.06
2309.29
2181.14
2099.84
2235.36
2035.66
2034.41
1910.9
1943.03
1886.49
1810.59
1760.15
1799.35
1721.04
1681.98
1671.37
1653.42
1654.23
1659.65
1664.83
1681.22
1696.86
520.307
826.026
26.8924
477.9
933.083
36.0922
191.129
102.499
87.9337
55.4334
39.5749
54.477
38.1123
44.4012
39.5975
34.1649
34.311
48.468
59.9596
92.1282
76.5509
105.987
62.5367
130.495
206.3
270.371
148.278
163.019
308.298
347.091
441.995
1015.39
1373
1601.41
1155.55
526.592
715.138
1707.86
1926.59
2348.03
2435.72
2394.01
2338.87
2239.25
2093.11
2141.37
2231.54
2016.53
2102.19
1978.29
1879.1
1969.25
1815.09
1851.49
1772.56
1698.81
1683.68
1686
1681.27
1680.25
1687.36
1700.74
1713.95
477.363
832.539
390.543
945.754
28.5276
150.978
90.8046
70.6553
50.1394
35.2987
49.9837
54.226
32.8618
41.8483
34.398
32.3109
30.1736
32.0588
43.5602
88.3015
72.5935
96.1226
59.248
116.067
214.743
249.919
135.387
163.286
282.275
344.204
379.947
807.618
1351.08
1583.49
1168.45
577.304
1795.12
1886.54
2275.88
2394.25
2437.34
2453.74
2429.58
2311.51
2202.54
2076.92
2075.51
2141.08
1943.03
2050.12
1831.8
1921.07
1752.44
1708.46
1697.53
1690.87
1702.69
1723.31
1736.86
230.431
461.853
642.273
709.221
139.583
3.97429
106.479
75.5104
53.8849
37.6716
29.0044
33.3965
46.1578
49.8477
28.8754
36.5131
31.6359
28.0054
29.9854
27.1639
27.3447
40.5347
78.7728
64.1606
95.0207
53.2033
120.087
101.725
200.349
264.386
140.919
177.255
305.779
374.692
753.568
1469.18
1664.47
1145.99
575.518
1792.93
1942.52
2244.16
2383.93
2458.23
2463.2
2426.49
2243.29
2332.27
2139.17
2097.9
2030.63
2123.73
1884.49
1974.27
1784.41
1747.36
1730.42
1720.16
1719.01
1735.78
1745.98
1759.45
272.654
605.758
559.469
172.995
91.5301
64.7891
45.9246
37.7413
25.1724
27.4259
42.7907
49.3532
25.7383
33.9422
29.728
25.6681
26.6498
25.4686
35.7193
75.588
60.7761
81.8374
52.8036
104.762
94.7527
218.681
252.409
138.459
174.946
309.956
411.187
796.14
1475.46
1764.72
1614.96
973.007
1304.8
492.317
1900.93
2025.79
2298.66
2438.41
2466.98
2476.16
2458.59
2380.13
2192.78
2270.61
2208.95
2101.36
1898.38
1957.23
2063.56
1844.06
1765.97
1756.78
1740.84
1731.69
1738.99
1760.32
1756.84
1765.02
1775.54
214.053
371.573
617.267
599.238
93.1422
67.9815
89.3108
48.2088
32.6799
22.1165
24.5175
41.0737
44.3659
22.8057
30.7594
26.9607
22.7639
25.7175
23.2622
33.8159
64.4332
78.829
47.5886
102.308
86.7806
201.425
268.151
123.403
158.199
298.744
369.66
662.73
1442.2
1829.21
1663.36
986.19
1283.25
536.564
1953.29
2067.83
2292.45
2439.71
2492.27
2495.24
2431.34
2379.05
2208.95
2228.66
2224.27
2173.25
1957.61
2017.52
2095.31
1860.56
1813.76
1795.83
1775.65
1775.94
1778.52
1787.11
1771.86
1786.49
1800.56
135.06
305.124
606.649
541.647
67.4945
56.9964
67.7716
41.3013
25.992
33.9708
21.2594
20.0234
20.5703
36.2142
43.101
20.7916
29.1971
24.9018
21.2149
21.9602
23.111
21.9165
31.0656
61.5406
68.8139
47.7256
87.2305
106.697
214.029
252.858
127.349
159.811
317.484
406.896
700.184
1552.41
1764.25
1915.6
839.026
1151.24
1418.5
474.226
2020.06
2160.33
2393.57
2491.63
2504.25
2454.76
2319
2249.51
2337.72
2005.81
1986.34
2158.82
1919.16
1810.07
1796.14
1800.32
1825.12
1793.63
1798.71
1808.94
1820.09
105.207
338.586
143.086
621.548
482.325
621.849
222.667
19.2307
55.6316
42.804
72.9822
23.2089
30.4718
18.5743
17.6151
18.3088
34.4909
36.4397
18.4717
26.5772
22.5045
24.8914
18.6791
19.4284
19.2849
30.7388
54.6292
66.4518
42.1003
81.9821
96.4493
203.831
273.137
113.719
142.857
178.742
300.712
381.95
563.033
1539
1797.64
1971.18
863.745
1170.42
1420.26
2051.86
2195.94
2407.92
2519.2
2529.16
2426.8
2282.84
2221.82
2355.44
2045.58
1981.63
2159.33
1936.39
1851.82
1844.23
1853.55
1872.44
1822.66
1805.88
1815.56
1833.95
1845.97
276.446
94.7948
603.621
457.984
460.851
219.881
6.14237
42.6485
35.8199
70.8377
19.3377
24.8575
31.6234
17.8162
17.4082
16.0736
17.6592
15.8728
34.1243
17.3939
25.7523
21.1031
22.0658
18.2283
18.4547
28.7166
53.7638
58.6241
71.4296
37.3225
44.2172
87.5018
100.577
229.468
262.107
116.656
145.972
179.073
324.114
414.567
582.491
1632.25
1737.33
1902.16
1980.97
734.105
1048.7
1332.96
1566.32
2138.09
2281.17
2491.59
2524.13
2541.56
2540.74
2455.46
2356.18
2297.79
2451.73
2098.73
2045.06
2225.91
1905.12
2019.38
1888.7
1896.57
1880.92
1931.54
1860.24
1839.64
1839.86
1851.11
1857.96
1867.52
362.101
142.875
530.33
529.325
91.5193
37.1044
54.6507
17.9731
23.4209
27.4255
15.6171
15.6225
14.7579
15.4166
14.3432
29.4523
34.6439
15.9242
23.372
19.4366
21.6465
16.3069
16.9262
48.8385
55.8276
70.0222
34.571
40.5772
80.6441
90.7968
223.076
283.247
131.854
105.646
162.34
197.691
308.203
499.278
377.975
1810.39
1920.08
2077.64
799.774
1093.43
1366.71
1613.87
2176.16
2279.54
2503.11
2556.26
2553.26
2560.37
2505.15
2406.72
2312.73
2479.83
2111.44
2238.91
1943.87
2051.01
1967.37
1952.01
1987.17
1940.51
1904.29
1860.61
1861.25
1870.74
1883.23
1893.67
241.286
105.499
387.216
515.19
113.1
37.6587
27.8796
52.4206
20.1059
15.5436
14.859
13.4095
14.0411
14.4835
13.0591
27.0919
29.6635
15.3126
22.8094
18.2636
19.9468
15.6886
16.2439
16.7531
48.5813
58.223
51.2406
63.9993
29.6381
36.0993
43.2717
83.047
93.8712
245.636
272.194
136.62
110.252
164.681
197.614
331.312
528.635
435.103
1775.38
2015.66
2088.81
2162.73
999.877
728.032
1262.82
1528.26
2329.43
2562.91
2572.85
2580.47
2476.99
2423.49
2341.76
2438.21
2570.32
2176.97
2007.88
2129.23
2040.47
2057.74
1999.54
1935.19
1914.1
1905.66
1902.63
1904.19
1907.32
1917.79
286.368
68.3331
426.212
448.732
481.068
37.2901
30.4547
23.0013
39.4909
19.0954
14.5583
13.5354
12.5722
12.6776
12.8851
12.1758
23.9912
13.9481
20.2547
18.6844
14.5866
14.732
16.075
53.7848
49.4074
67.3455
26.1707
34.6385
41.8983
77.7892
83.5722
241.574
290.918
153.765
127.134
104.961
179.571
219.202
319.431
612.074
445.898
1825.02
2041.2
2165
2252.73
1090.03
830.043
1322.06
1569
2574.84
2590.57
2558.99
2504.89
2366.43
2278.02
2485.42
2615.04
2195.15
2053.27
2143.06
2122.48
2058.99
2122.08
1999.41
1938.97
1930.74
1922.09
1921.76
1936.95
1946.83
195.222
53.6172
276.535
453.53
462.197
57.9111
23.5182
30.1156
41.807
16.3093
12.8935
13.2884
12.6332
11.9766
11.9096
12.2657
11.6537
22.6292
13.4312
19.2458
17.3329
13.6248
14.3682
16.3849
14.7793
54.6225
44.6164
62.0998
26.5634
23.4483
31.3596
39.2157
83.5466
272.77
160.898
136.407
112.902
93.5145
180.394
221.996
344.636
605.864
523.436
403.6
1720.79
1931.54
2135.58
2009.56
2256.25
2170.92
1005.77
1253.72
740.648
1464.99
2603.48
2568.82
2446.15
2375.31
2296.47
2586.89
2418.88
2622.88
2650.98
2209.68
2214.53
2112.68
2222.39
2056.86
1992.26
1983.95
1970.8
1952.81
1963.1
1962.37
1970.81
69.0085
193.464
359.145
451.519
10.8727
20.8093
24.598
33.7415
15.2325
12.0405
12.184
12.5397
11.641
11.0766
11.0569
11.1481
11.0406
19.8907
12.5139
17.4926
12.8734
13.3294
15.2962
14.2685
50.5204
42.9715
65.2312
23.3798
28.4182
21.6418
33.4897
38.627
74.8661
275.675
154.637
126.898
103.175
91.9226
195.313
249.642
336.453
537.888
458.151
1748.72
1927.57
2158.87
2083.31
2320.54
2263.54
1122.06
1349.23
767.936
1510.7
2631.07
2528.96
2610.33
2462.44
2296.63
2603.67
2468.94
2675.31
2671.29
2173.2
2305.94
2227.18
2081.64
2053.86
2035.17
1977.62
2019.21
1977.32
1983.21
1992.46
2000.3
28.9224
317.18
88.8687
239.001
388.029
14.0747
17.2363
23.3954
32.9884
13.1381
11.1296
11.1847
11.7074
10.9688
10.8623
10.8637
10.6139
10.7485
18.7908
11.8533
16.4066
12.0634
12.6556
15.2845
13.3854
44.0027
52.864
59.8337
23.2902
26.1596
19.9669
31.8229
80.5207
293.316
162.109
134.768
104.424
196.553
255.661
311.705
392.954
630.994
465.136
1856.11
1638.72
1998.55
2217.72
2068.82
2331.47
1317.51
1080.8
916.03
2517.68
2616.05
2394.82
2567.17
2666.54
2454.57
2689.37
2684.96
2649.31
2212.13
2285.38
2189.42
2103.24
2049.42
2026.36
2055.57
2030.76
2020.58
2020.61
2019.13
2025.06
306.973
84.4192
274.187
383.061
4.46415
15.8358
18.7786
30.2972
12.3444
10.8126
10.6237
10.9655
10.4003
10.2838
10.1983
10.3075
10.2911
17.2711
11.1608
16.4619
11.6904
11.9395
12.81
14.4788
13.4084
40.8582
49.5451
62.0365
20.9964
26.7933
18.906
32.7056
78.1346
284.302
154.063
176.533
128.465
112.51
96.5455
223.25
249.334
333.847
395.655
658.085
573.279
1870.53
1672.1
1978.16
2306.91
2209.55
2137.62
2418.81
1436.77
1248.27
940.251
2565.2
2423.09
2594.21
2677.26
2554.37
2730.72
2677.98
2650.51
2363.92
2236.52
2178.18
2133.67
2126.03
2076.87
2036.73
2070.16
2042.36
2049.81
2051.82
190
346.029
48.6494
172.34
350.005
8.6254
13.507
17.4186
20.4981
33.7839
11.0533
10.1631
10.0822
10.4871
9.92337
9.87436
9.86415
9.95343
9.9596
17.0592
10.6776
14.8689
10.9272
11.4657
11.8348
12.5434
36.1749
44.0844
54.3153
67.5764
21.7026
19.2658
25.026
28.3498
85.2771
300.392
163.916
190.048
138.386
111.777
101.794
219.527
271.84
323.028
427.978
821.507
610.423
1822.59
1602.58
2031.21
2382.5
2274.6
2151.91
2490.77
1390.37
1240.19
1140.83
2568.05
2652.73
2718.71
2593.42
2736.07
2675.19
2623.98
2401.13
2329.16
2204.3
2181.07
2155.85
2094.48
2128.2
2082.81
2086.66
2071.48
2075.21
209.185
298.576
58.0428
140.471
212.585
355.214
6.23115
12.7278
14.189
18.3117
25.6097
10.5921
9.60725
10.1448
9.49054
9.51742
9.46205
9.52762
9.42927
15.9606
10.3569
14.4447
10.723
11.645
12.6013
35.3283
41.5059
54.0149
67.5324
19.3425
23.8819
18.2049
26.2895
29.2713
77.1651
294.693
153.998
182.709
125.876
103.448
243.853
270.1
341.126
388.441
521.173
897.756
774.217
1880.33
1702.98
2121.99
1996.91
2385.8
2470.08
2236.6
2352.79
2579.99
1529.26
1349.65
1200.85
2507.42
2658.38
2747.06
2698.96
2756.87
2634.73
2359.93
2285.46
2267.43
2222.26
2119.51
2206.88
2110.41
2113.96
2095.27
2095.27
2102.54
146.006
317.391
32.8031
23.4641
145.188
331.276
11.2694
14.6757
18.1787
26.5976
9.85045
9.44038
9.14024
9.67673
9.52177
9.21886
9.20522
9.28699
9.26988
9.171
16.4104
14.959
10.0737
13.4455
10.3005
10.8882
11.8907
33.1102
43.4785
62.1806
48.0564
19.292
24.2958
26.7315
82.4611
321.836
159.245
194.715
129.845
118.517
95.0082
249.974
296.771
429.986
586.896
1076.57
785.832
1843.57
1662.65
2178.91
2070.09
2490.3
2534
2284.6
2403.94
2651.26
1500.02
1320.92
1188.38
2515.33
2717.85
2782.7
2665.31
2743.83
2589.84
2447.46
2311.93
2318.54
2303.47
2201.11
2269.04
2182.97
2155.88
2112.22
2128.09
2137.02
175.188
268.483
47.6187
3.40606
23.6692
203.755
331.287
10.9864
13.5205
15.4766
24.8401
9.56464
9.00341
8.89206
9.47769
9.23887
9.07272
8.95165
8.95336
9.00725
8.83604
15.3076
14.0287
9.57796
13.1882
10.2835
10.8403
12.4767
11.3524
34.8358
40.1693
62.5836
49.2269
21.7921
17.3551
24.2539
27.2709
79.4752
327.928
147.279
177.944
232.355
124.125
100.738
286.335
297.427
519.374
415.585
1163.96
836.33
1927.2
1776.77
2162.98
2262.98
2033.83
2542.51
2635.1
2374.91
2491.11
2733.51
1609.84
1404.93
1323.91
2806.34
2687.37
2599.84
2760.87
2458.72
2393.25
2395.63
2370.28
2261.87
2348.53
2226.77
2171.93
2201.77
2144.45
2154.38
2160.3
2171.75
123.211
289.314
20.0747
3.16973
155.68
314.793
10.0483
10.882
11.5642
14.1971
22.9666
16.9219
9.07759
8.80228
8.91028
8.66893
9.21638
8.86084
8.69897
8.84867
8.7877
8.66142
14.1007
15.6482
9.28351
9.74075
10.2742
12.31
11.3333
31.9089
43.3443
54.0177
71.7087
21.549
17.7474
24.279
92.0844
364.143
154.333
185.055
251.866
114.097
147.595
297.201
308.712
582.651
491.539
1182.06
1331.39
719.991
1038.39
1885.23
1744.66
2236.33
2337.08
2077.39
2643.65
2691.39
2444.28
2533.06
2795.96
1558.76
2794.94
2828.1
2634.06
2535.44
2724.64
2466.77
2460.84
2337.87
2398.68
2306.01
2216.33
2246.54
2169.09
2179.27
2202.85
2212.07
154.179
240.523
81.3696
10.4639
45.87
211.756
309.349
9.68909
10.0963
12.0692
18.3574
15.1963
9.16555
8.56072
8.62073
8.47704
9.04365
8.81397
8.66771
8.55057
8.63413
8.55811
8.44467
12.9726
14.6697
9.08064
9.28976
9.31426
9.83946
10.2706
11.0638
33.2302
42.6268
54.2198
72.3215
22.715
19.3696
15.8261
25.039
98.3204
371.872
168.474
209.791
293.985
242.144
116.982
153.837
337.502
508.193
1344.94
1502.74
785.302
1095.05
1984.3
1823.88
2232.3
2326.37
2442.91
2160.79
2696.16
2771.24
2621.62
2798.62
1631.19
2815.41
2836.91
2647.41
2545.32
2696.81
2527.96
2356.35
2474.31
2339.35
2249.98
2307.85
2222.51
2220.75
2242.62
2247.19
2249.62
263.034
91.5139
10.1534
21.3933
159.406
296.759
9.66283
11.0875
24.1704
15.2122
12.2431
8.84098
8.45033
8.53191
8.3407
8.63393
8.47315
8.35485
8.50611
8.41996
8.34158
12.8027
13.5862
8.98261
9.06002
9.47378
9.84009
10.4702
11.3247
29.0875
38.7901
47.13
62.0088
83.3131
20.6697
19.1719
15.8626
23.4735
95.9229
427.734
188.5
210.181
318.157
274.931
127.977
166.139
142.706
373.726
593.37
1487.72
1373.91
949.329
711.908
1305.32
1990.89
1914.47
1796
2296.31
2412.78
2534.65
2183.01
2692.26
2790.55
2658.15
2844.37
1744