/*--------------------------------*- C++ -*----------------------------------*\
| =========                 |                                                 |
| \\      /  F ield         | OpenFOAM: The Open Source CFD Toolbox           |
|  \\    /   O peration     | Version:  v1912                                 |
|   \\  /    A nd           | Website:  www.openfoam.com                      |
|    \\/     M anipulation  |                                                 |
\*---------------------------------------------------------------------------*/
FoamFile
{
    version     2.0;
    format      ascii;
    class       volScalarField;
    location    "10000";
    object      p;
}
// * * * * * * * * * * * * * * * * * * * * * * * * * * * * * * * * * * * * * //

dimensions      [0 2 -2 0 0 0 0];


internalField   nonuniform List<scalar> 
71770
(
251.204
247.658
241.295
229.424
205.613
190.053
176.441
163.694
152.775
147.684
143.51
102.188
252.589
254.092
253.375
253.343
253.355
254.092
254.092
254.092
254.092
254.092
253.375
253.375
253.371
253.373
253.368
253.374
253.375
253.363
253.375
253.375
253.375
253.375
145.669
252.389
252.451
247.385
247.27
247.119
246.923
240.779
240.585
240.337
228.505
240.928
246.669
240.021
228.208
252.528
252.55
252.496
251.111
251.063
247.47
250.996
250.907
250.788
250.632
247.533
241.04
241.124
228.74
228.924
229.067
176.34
252.585
252.582
252.575
251.183
251.192
252.566
251.168
247.609
189.73
176.153
163.395
152.276
251.145
247.578
241.185
205.281
205.473
205.512
205.424
189.971
189.933
205.362
189.816
189.882
176.294
176.233
163.549
163.483
152.42
247.653
241.254
252.589
251.203
251.202
247.655
241.287
241.281
241.271
247.656
241.227
252.589
251.204
251.204
251.204
251.204
251.204
247.658
247.657
247.657
247.657
205.565
190.032
205.581
190.041
176.431
205.593
176.373
176.424
190.019
189.999
176.413
176.397
229.4
229.383
229.356
205.605
205.601
190.046
190.049
229.415
229.409
241.292
241.29
229.42
229.418
205.608
190.05
176.435
229.316
176.437
176.439
247.658
241.295
241.294
241.293
241.293
241.294
229.424
229.422
205.613
205.612
205.613
205.613
229.423
229.424
229.421
205.612
205.612
190.052
205.611
205.61
205.61
190.052
190.051
176.441
176.44
176.44
190.053
190.053
190.053
190.053
190.053
190.053
176.441
176.441
176.441
176.441
163.693
163.693
176.441
176.441
163.694
163.694
163.694
163.694
163.63
163.653
152.661
163.678
152.745
163.685
163.669
152.727
152.7
163.597
152.605
152.757
152.764
147.667
143.47
147.632
147.654
143.44
163.69
163.693
163.693
163.692
163.688
163.694
152.774
152.772
152.769
152.775
152.775
147.674
152.775
152.776
152.775
152.775
152.775
152.775
147.681
147.678
143.501
143.486
143.496
147.683
147.682
147.683
147.684
147.684
147.07
147.247
146.537
146.838
142.134
101.65
147.478
142.814
147.38
142.52
101.801
143.035
101.917
147.549
141.004
141.637
143.391
102.158
102.112
102.14
147.599
143.313
102.068
143.198
102.005
101.456
101.21
100.899
39.4711
39.3785
39.5657
39.7381
39.6562
100.508
102.168
39.9445
39.8672
39.9123
39.9659
39.9792
39.809
143.504
143.506
143.509
143.508
143.507
102.186
102.187
102.175
102.179
102.182
39.9937
39.9878
102.183
102.185
39.9984
40.0023
252.587
251.197
252.588
251.2
247.649
247.641
247.629
252.588
252.589
205.542
229.257
229.176
152.527
146.153
140.206
252.589
252.589
40.0133
13.852
13.6949
13.9584
14.0215
14.0188
14.0173
14.0165
14.0156
14.0141
14.0282
14.0221
14.0477
14.0374
14.0545
14.0498
14.0128
40.0057
40.0087
40.0113
-160.911
-144.399
-129.526
-146.043
-150.98
-144.981
-139.145
-138.572
-145.643
-167.513
-155.4
-185.707
-132.914
-137.197
-141.453
-149.656
-161.946
-155.907
-165.555
-113.259
-103.307
-130.769
-131.188
-137.227
-149.915
-159.575
-156.314
-164.612
-165.269
-111.002
-108.156
-121.581
-127.491
-132.327
-138.082
-155.165
-149.665
-162.709
-160.071
-156.712
-164.059
-166.289
-165.848
-120.6
-134.549
-125.012
-127.213
-147.843
-141.342
-153.38
-150.153
-160.589
-158.115
-163.122
-165.725
-166.814
-166.161
-146.183
-99.9547
-124.201
-122.766
-129.023
-140.783
-134.882
-156.134
-151.834
-162.838
-161.626
-157.774
-162.271
-165.05
-165.608
-167.021
-166.612
-76.4987
-91.0861
-108.385
-118.321
-122.968
-143.936
-137.044
-157.177
-146.998
-154.411
-163.104
-161.283
-158.888
-163.87
-163.948
-166.877
-167.869
-167.129
-78.261
-96.8674
-109.303
-106.485
-117.795
-107.534
-125.774
-138.104
-133.146
-158.981
-149.097
-152.605
-163.837
-161.821
-159.982
-163.481
-167.455
-166.864
-169.024
-167.819
-62.5879
-47.462
-97.7417
-110.994
-104.65
-122.709
-138.316
-131.487
-159.311
-152.075
-154.5
-162.814
-160.389
-163.315
-166.287
-168.248
-169.884
-170.155
-169.87
-60.1553
-81.7333
-99.5178
-109.457
-101.204
-124.446
-114.982
-149.299
-142.74
-139.894
-128.961
-159.839
-152.982
-155.551
-165.269
-162.48
-162.719
-165.739
-168.004
-168.151
-168.691
-170.611
-170.916
-38.4816
-92.9568
-59.7543
-92.2489
-99.893
-96.0058
-121.31
-108.228
-147.216
-142.455
-136.082
-134.046
-159.632
-153.111
-155.709
-165.332
-163.225
-161.844
-166.686
-167.127
-167.694
-170.127
-172.208
-171.928
-29.6857
-48.549
-83.3087
-74.8898
-108.866
-85.5162
-111.1
-123.176
-149.049
-144.106
-137.344
-126.891
-160.107
-155.035
-157.889
-165.825
-165.213
-164.084
-167.324
-169.135
-169.755
-171.047
-173.06
-173.184
-16.339
-56.2807
-66.1907
-73.8731
-103.279
-84.1932
-113.733
-115.199
-150.049
-144.608
-140.33
-130.416
-155.099
-163.145
-156.124
-165.309
-167.264
-166.907
-165.878
-169.258
-169.44
-171.193
-171.704
-174.016
-174.748
-174.687
-71.0706
-28.8551
-55.192
-64.1294
-108.562
-91.6606
-71.0989
-112.628
-156.029
-148.251
-148.516
-139.592
-130.948
-158.084
-162.283
-155.825
-167.419
-167.95
-165.042
-166.484
-168.905
-170.034
-171.403
-173.703
-172.673
-175.292
-176.372
-31.0413
-56.788
-51.1087
-63.7756
-103.991
-82.5527
-77.5675
-109.902
-118.054
-162.003
-155.741
-153.211
-141.202
-143.181
-128.608
-162.482
-166.086
-152.608
-165.522
-168.411
-165.414
-165.762
-168.935
-168.491
-172.186
-171.776
-173.685
-176.1
-176.555
-177.108
-20.8389
-40.8656
-37.6374
-48.2158
-55.3342
-95.149
-59.0459
-107.875
-117.998
-152.072
-152.029
-139.927
-143.835
-139.443
-160.769
-164.882
-155.149
-168.247
-170.79
-168.213
-169.414
-172.661
-172.963
-175.271
-173.593
-175.649
-176.617
-178.499
-178.718
-12.086
10.8841
-33.6094
-43.7261
-59.6687
-98.7057
-64.659
-113.865
-98.6847
-118.098
-156.323
-160.378
-159.869
-149.498
-141.215
-140.736
-138.531
-161.905
-161.565
-157.274
-170.188
-170.171
-169.742
-172.969
-172.685
-175.022
-173.973
-176.737
-177.434
-177.88
-179.472
-180.768
0.764322
-12.6219
-7.79551
-24.152
-36.0302
-55.6006
-78.3291
-61.3465
-110.824
-98.9628
-128.024
-147.762
-157.804
-150.323
-151.635
-145.886
-145.634
-163.237
-168.352
-165.256
-165.58
-161.941
-172.013
-169.793
-165.111
-173.855
-176.916
-174.666
-175.206
-177.88
-177.422
-177.601
-178.886
-177.958
16.2405
25.6353
33.0005
-15.5198
-39.0898
-34.2457
-80.8469
-61.9643
-38.8087
-107.089
-114.335
-88.787
-130.244
-137.084
-151.261
-150.873
-145.757
-153.3
-144.892
-163.714
-163.448
-171.909
-170.515
-166.236
-168.31
-171.779
-172.087
-173.237
-173.862
-173.995
-176.95
-177.552
-178.361
-181.669
-179.145
-182.707
2.88997
32.6189
13.8267
3.5502
-13.8868
-22.2323
-46.989
-71.1957
-58.8193
-63.8176
-107.843
-122.522
-84.7186
-129.375
-143.455
-162.179
-152.295
-146.575
-147.871
-141.528
-153.814
-166.07
-171.226
-172.038
-169.903
-171.636
-174.548
-173.887
-177.753
-177.616
-180.065
-181.233
-179.746
-181.878
-181.978
-183.018
50.551
22.9528
32.8876
11.8276
2.42259
-6.07334
-44.0063
-79.1385
-60.0833
-52.5624
-90.7946
-116.394
-120.39
-139.012
-141.095
-159.171
-161.008
-149.263
-156.539
-140.33
-155.635
-168.467
-169.772
-168.802
-173.099
-170.383
-173.046
-175.651
-178.114
-179.441
-180.434
-179.035
-180.879
-183.148
-184.123
-183.799
54.7718
12.3822
11.6595
59.534
1.33164
-7.58637
-28.4062
-20.8866
-79.847
-53.8622
-79.8524
-53.1339
-103.494
-96.2365
-128.954
-135.599
-137.336
-170.484
-165.94
-148.87
-159.174
-152.425
-173.603
-173.491
-171.608
-174.418
-173.385
-170.291
-175.054
-174.924
-173.542
-174.982
-177.37
-178.01
-179.827
-182.595
-181.978
-182.328
-184.116
-185.04
7.90712
28.0429
21.3945
52.8636
25.9943
-0.312683
-26.8003
-22.6177
-81.2912
-69.321
-73.5514
-44.6971
-103.138
-104.66
-130.146
-131.513
-141.707
-139.414
-159.03
-147.49
-160.744
-152.308
-155.334
-170.555
-171.64
-172.897
-175.534
-174.312
-177.66
-177.626
-179.658
-179.999
-182.128
-179.19
-181.676
-182.11
-182.755
-184.726
-186.045
-185.76
41.3101
12.5538
24.8758
67.7743
13.7916
20.0741
-12.7193
-41.0147
-93.3644
-74.1986
-84.0623
-47.9188
-97.3921
-121.836
-128.487
-132.848
-148.773
-141.776
-161.889
-156.986
-161.351
-166.634
-153.266
-158.898
-172.155
-172.51
-172.708
-174.727
-175.225
-174.959
-179.433
-179.769
-180.229
-181.505
-181.789
-183.689
-185.258
-185.871
-186.888
-187.009
8.06661
53.0082
34.6916
23.6246
3.08067
-16.0274
-32.028
-91.731
-60.8696
-84.7618
-80.5475
-37.8664
-115.647
-117.556
-126.519
-143.16
-143.312
-148.437
-168.42
-157.248
-165
-157.243
-172.518
-176.78
-174.872
-175.767
-174.585
-175.442
-175.473
-176.205
-179.665
-179.641
-182.387
-183.373
-185.123
-185.06
-185.997
-185.477
-187.067
-188.556
55.4977
55.4868
26.1514
40.6438
24.0285
2.11499
13.3085
-8.43952
-35.2081
-107.163
-61.527
-82.7115
-84.9694
-48.0204
-98.8752
-127.199
-127.465
-155.48
-149.712
-160.498
-170.05
-151.426
-166.601
-160.052
-170.346
-176.919
-178.761
-168.849
-174.845
-175.759
-176.954
-179.754
-180.516
-180.442
-183.526
-184.934
-185.164
-189.35
-189.142
-189.744
26.2941
56.1298
69.0746
30.4115
15.9875
8.85014
-12.2511
-11.0427
-45.4435
-105.429
-69.2754
-89.4036
-84.1464
-74.2068
-112.796
-122.685
-128.868
-144.404
-139.273
-158.409
-154.389
-165.055
-168.764
-169.669
-171.942
-172.587
-170.659
-173.899
-174.352
-176.268
-179.326
-179.38
-183.136
-182.267
-184.373
-184.593
-184.604
-186.822
-189.094
-185.639
-186.639
-189.572
-191.067
60.4894
34.8
64.7915
82.6082
55.7871
43.8076
67.0296
16.4999
-1.9674
-19.4729
-30.9387
-111.546
-65.4665
-86.7885
-87.7256
-76.9365
-114.896
-126.994
-133.552
-128.625
-146.742
-145.545
-172.511
-173.532
-171.404
-172.189
-172.148
-176.478
-179.755
-174.732
-175.965
-180.126
-177.525
-181.89
-183.56
-180.455
-185.072
-183.846
-185.713
-186.361
-187.079
-187.667
-191.629
-191.999
-191.749
63.3694
34.6476
44.9155
43.4262
8.24866
11.193
-11.7841
-26.3727
-48.5507
-31.6974
-115.763
-75.3287
-98.6475
-116.777
-80.3312
-118.58
-122.292
-134.469
-143.355
-147.581
-153.993
-167.622
-149.044
-162.561
-156.038
-166.318
-170.418
-168.668
-177.773
-177.408
-180.082
-177.104
-179.394
-180.659
-181.181
-184.112
-182.478
-186.386
-188.628
-185.261
-190.897
-189.365
-190.415
-191.664
-193.073
83.25
112.362
66.7545
96.646
29.1
19.9548
12.6583
10.4849
-20.3993
-50.8505
-51.1209
-101.326
-78.3476
-102.611
-113.045
-77.647
-121.553
-122.574
-127.589
-142.8
-154.519
-151.627
-151.272
-170.259
-171.716
-161.114
-170.566
-182.602
-173.328
-176.758
-175.447
-181.789
-176.447
-177.923
-179.79
-183.227
-185.17
-184.895
-187.22
-185.673
-189.079
-187.423
-191.033
-194.144
-193.031
-195.13
64.8044
70.5204
55.2143
54.0983
66.6479
-13.9807
-10.4452
-24.3197
-54.714
-63.5343
-113.631
-81.4712
-110.453
-112.624
-89.0623
-121.014
-142.178
-136.242
-138.702
-137.544
-148.633
-153.356
-154.287
-168.978
-173.905
-178.402
-170.581
-182.991
-177.554
-178.051
-183.924
-179.52
-179.59
-183.383
-183.199
-185.326
-184.945
-188.115
-189.888
-190.775
-188.528
-192.541
-192.916
-194.705
-195.877
-195.407
60.9375
69.3331
34.2853
37.678
71.5795
35.8959
-23.8811
-30.0288
14.4484
-8.36506
-56.9886
-70.4042
-120.443
-86.295
-111.855
-109.898
-87.6563
-138.913
-119.618
-140.036
-134.764
-146.373
-141.464
-152.875
-146.044
-161.105
-148.001
-161.505
-167.825
-182.473
-166.756
-177.888
-170.713
-183.157
-178.45
-176.771
-183.289
-181.941
-186.999
-185.084
-187.763
-188.116
-191.894
-192.68
-192.389
-192.727
-194.366
-193.83
-195.328
-196.612
40.3669
61.9333
71.5115
68.8278
30.5293
44.4524
38.5761
-38.9516
-39.5618
1.55371
-17.5587
-71.4784
-49.2236
-76.6739
-91.581
-117.274
-114.464
-94.4443
-134.116
-130.598
-147.931
-142.523
-148.65
-166.391
-150.717
-163.294
-166.721
-166.445
-176.365
-177.546
-181.98
-173.184
-185.668
-179.28
-178.252
-182.016
-183.008
-187.172
-188.361
-190.51
-188.6
-190.873
-187.985
-194.79
-194.585
-194.647
-197.684
-196.94
-198.843
49.8363
72.9466
45.9446
100.909
22.3565
48.1933
56.1875
24.2693
-44.6817
5.08376
-8.10121
-33.0371
-74.9572
-69.8598
-87.533
-104.034
-116.096
-119.807
-134.198
-93.5078
-101.566
-140.807
-135.716
-150.956
-147.002
-152.133
-164.397
-173.891
-176.851
-166.388
-175.896
-174.513
-182.535
-175.646
-173.865
-180.454
-173.631
-181.461
-183.322
-183.837
-186.495
-187.027
-193.22
-189.142
-192.316
-186.574
-191.755
-193.945
-196.205
-196.168
-198.585
-200.231
-199.945
148.405
70.8224
69.9495
52.129
59.2016
38.5841
25.3599
-54.8697
-1.87448
-21.1446
-38.3347
-83.0969
-68.196
-90.5902
-106.153
-124.057
-125.887
-133.822
-102.403
-111.832
-139.339
-142.772
-150.992
-156.085
-155.453
-147.472
-166.031
-176.2
-168.296
-178.693
-173.398
-178.214
-180.03
-178.684
-183.217
-179.748
-190.999
-182.905
-184.262
-195.707
-193.783
-192.164
-193.96
-198.158
-197.837
-199.886
-198.076
-200.774
-202.143
-189.022
64.8144
76.2056
38.8449
69.9181
24.3516
7.53315
-56.9077
-9.6947
-33.9085
-17.9131
-52.5681
-90.729
-78.7776
-99.0683
-116.127
-123.566
-128.927
-140.82
-104.233
-110.541
-117.179
-150.858
-142.158
-157.978
-159.832
-164.169
-155.489
-173.823
-172.511
-171.764
-188.294
-179.211
-179.931
-173.118
-179.257
-180.094
-181.079
-183.855
-184.087
-185.733
-191.93
-185.756
-185.271
-190.415
-194.26
-193.322
-197.718
-197.015
-199.605
-197.1
-201.304
-198.614
-188.932
48.2919
77.1238
46.7127
85.2314
40.6325
41.1974
2.78047
-69.7851
-15.6882
-39.595
-32.995
-61.4953
-90.2384
-100.607
-77.4298
-105.32
-130.315
-134.673
-141.525
-114.055
-116.514
-127.637
-153.429
-149.221
-161.46
-162.2
-161.275
-168.425
-171.537
-178.72
-169.473
-176.499
-176.422
-185.674
-189.673
-178.583
-180.705
-184.087
-185.631
-186.348
-192.623
-196.039
-191.876
-188.238
-193.897
-194.883
-195.861
-197.843
-199.527
-199.877
-199.212
-204.407
58.8519
65.4519
74.07
45.251
54.016
22.1531
8.63384
-7.99677
-77.7367
-25.6868
-53.5259
-34.5645
-73.3444
-95.0937
-114.237
-89.6026
-116.904
-135.661
-144.383
-120.213
-124.24
-131.938
-162.733
-155.128
-162.238
-163.738
-163.09
-177.274
-182.608
-177.949
-173.102
-179.2
-188.437
-182.607
-190.627
-181.418
-175.044
-182.784
-182.431
-188.395
-187.274
-186.918
-193.439
-187.947
-194.808
-195.412
-198.21
-197.92
-199.405
-199.93
-202.111
-203.113
-204.812
62.1405
84.3089
69.9919
63.7913
63.5523
27.9814
15.7138
-7.23371
-14.0625
-88.1419
-27.0704
-60.5415
-44.1691
-75.605
-102.888
-112.696
-119.295
-142.432
-149.808
-126.142
-130.955
-141.073
-162.984
-156.077
-175.493
-170.025
-170.845
-186.702
-182.763
-174.747
-169.342
-194.293
-177.69
-172.629
-182.263
-191.207
-181.966
-188.008
-191.324
-189.389
-186.182
-195.715
-197.347
-197.114
-195.545
-197.33
-198.713
-198.891
-198.175
-204.988
-203.27
-204.794
-205.989
-205.845
54.2892
64.5412
42.0093
55.1766
34.0297
12.8393
-10.6438
-96.769
-35.9689
-70.3316
-54.2454
-47.1661
-85.8922
-106.509
-123.047
-125.561
-148.552
-158.645
-133.276
-139.725
-151.833
-147.858
-168.87
-158.911
-178.187
-167.328
-173.685
-177.946
-166.826
-182.971
-184.407
-191.372
-196.563
-182.462
-186.758
-169.925
-195.322
-183.649
-184.735
-192.242
-182.954
-189.642
-192.065
-194.793
-196.688
-187.699
-196.719
-200.791
-199.521
-198.786
-203.713
-201.754
-204.476
-207.1
-207.027
74.2198
41.9208
58.5508
50.573
40.6593
29.0258
23.8199
42.7691
-2.50336
-20.8339
-101.755
-32.6966
-76.5484
-72.4804
-56.4877
-98.6609
-93.9326
-117.507
-129.387
-124.752
-135.593
-158.003
-141.886
-139.708
-149.33
-164.091
-160.014
-170.786
-164.664
-182.279
-174.285
-177.114
-178.791
-177.305
-188.585
-190.691
-182.906
-187.976
-186.614
-194.008
-185.066
-191.317
-185.034
-190.255
-189.419
-191.927
-192.702
-196.862
-195.694
-187.237
-198.9
-198.939
-199.128
-203.558
-202.719
-201.825
-205.874
-206.021
-207.096
-208.723
37.9223
45.7613
58.5888
66.8246
57.5245
32.1913
9.09183
27.3928
-4.85922
-23.0078
-113.729
-44.7914
-88.5453
-74.4549
-67.9775
-54.9826
-102.314
-120.339
-141.252
-135.315
-149.957
-163.021
-144.053
-154.535
-166.126
-166.841
-178.204
-172.672
-184.063
-186.148
-183.229
-183.436
-191.659
-190.348
-192.887
-171.943
-185.578
-193.108
-189.646
-185.651
-185.03
-189.107
-201.255
-192.733
-190.57
-189.653
-192.27
-195.993
-195.311
-196.065
-196.87
-201.468
-200.763
-199.268
-202.259
-204.969
-205.531
-206.178
-209.431
-209.124
-208.679
34.8742
32.8675
60.0816
69.2582
49.0842
55.1017
24.2295
14.813
1.18843
-12.3589
-34.515
-116.843
-45.2571
-92.2151
-88.1991
-76.4558
-68.4212
-108.78
-130.262
-142.861
-150.211
-137.171
-154.904
-169.005
-150.261
-161.876
-170.308
-174.012
-179.32
-184.045
-172.236
-185.702
-190.139
-187.693
-186.585
-195.106
-182.426
-180.903
-187.679
-187.945
-191.953
-197.757
-200.004
-187.212
-192.952
-188.436
-196.217
-193.186
-198.768
-197.69
-196.363
-198.642
-201.681
-201.246
-198.774
-205.196
-203.08
-203.213
-205.008
-208.499
-205.301
-207.172
-210.011
-214.825
38.8196
41.5172
45.094
39.4297
60.7356
40.2753
22.6431
-2.30413
-14.2374
-34.2116
-124.267
-56.7168
-100.614
-91.779
-87.3582
-68.4064
-110.821
-131.985
-152.488
-157.729
-147.566
-163.75
-167.693
-177.969
-181.204
-183.758
-188.564
-188.609
-182.614
-187.514
-196.403
-192.752
-191.946
-177.596
-188.889
-183.811
-184.055
-188.091
-194.195
-202.477
-205.377
-194.77
-191.02
-193.063
-198.157
-189.629
-201.546
-199.88
-201.894
-201.89
-206.025
-203.112
-206.378
-209.919
-205.703
-208.201
-210.002
-212.186
-211.204
35.15
17.9232
51.5274
49.0096
35.7834
58.2963
18.3824
9.85024
-0.0980224
-22.9466
-43.2959
-126.699
-56.9662
-108.448
-103.344
-89.0318
-78.2644
-120.463
-142.271
-154.551
-159.198
-166.314
-150.318
-176.59
-185.573
-185.733
-190.175
-191.805
-189.847
-191.088
-195.727
-199.113
-193.626
-192.137
-194.904
-199.932
-190.513
-195.548
-201.266
-200.609
-202.562
-199.617
-183.93
-185.395
-204.18
-191.758
-194.046
-197.292
-191.051
-196.362
-200.662
-203.915
-207.219
-206.197
-208.519
-208.58
-208.763
-210.318
-213.502
-214.052
30.2148
32.6332
59.4691
35.2086
55.1389
24.2573
6.83361
-9.39656
-20.9394
-43.0497
-136.587
-65.4547
-118.1
-114.384
-100.393
-78.7616
-123.368
-145.311
-163.73
-169.625
-177.221
-159.36
-180.74
-194.325
-193.269
-195.295
-200.221
-194.295
-198.771
-194.232
-197.797
-210.797
-201.339
-199.893
-198.804
-196.597
-190.452
-199.54
-201.856
-196.956
-195.124
-188.084
-186.475
-194.3
-191.725
-196.934
-198.156
-202.801
-203.407
-206.83
-206.367
-206.115
-207.432
-205.732
-208.939
-209.782
-210.104
-214.082
-214.094
-215.605
11.7537
33.7479
55.2434
34.0306
51.1885
49.7237
12.7394
1.11499
-9.16238
-32.8329
-52.8378
-143.323
-63.7285
-121.126
-112.968
-104.009
-84.6962
-131.489
-153.602
-172.539
-165.839
-180.071
-160.057
-189.693
-201.286
-197.24
-205.644
-208.597
-200.01
-204.157
-211.003
-212.676
-205.648
-205.963
-217.918
-210.388
-210.818
-209.06
-200.391
-203.492
-204.012
-195.264
-203.481
-191.322
-194.837
-191.976
-204.484
-205.399
-193.641
-200.482
-201.325
-203.818
-206.825
-205.732
-206.557
-207.775
-210.529
-211.817
-209.828
-213.241
-215.893
-217.447
-217.15
17.4678
-6.93327
43.0193
2.91441
44.9438
20.6207
0.184076
-14.7909
-33.4438
-54.6356
-138.532
-153.981
-72.437
-130.775
-127.473
-95.4636
-112.602
-82.7254
-137.037
-183.964
-175.574
-184.589
-170.528
-201.245
-207.159
-206.745
-216.332
-219.085
-211.642
-211.54
-214.833
-211.897
-219.213
-214.719
-208.432
-213.285
-218.706
-206.135
-200.799
-204.439
-201.654
-202.745
-198.476
-208.724
-199.629
-198.132
-199.827
-198.673
-204.208
-202.303
-201.756
-202.751
-207.675
-208.065
-210.29
-213.915
-215.629
-218.351
-218.958
24.5188
65.9047
26.5939
23.6384
35.1894
42.9041
7.1392
-10.6081
-23.1236
-39.0021
-64.7955
-46.1766
-152.183
-157.231
-72.5461
-134.231
-129.088
-104.316
-120.367
-112.779
-88.861
-147.84
-186.088
-179.561
-194.204
-176.45
-215.078
-201.549
-217.348
-212.486
-221.272
-223.745
-215.946
-220.067
-218.68
-224.706
-208.374
-215.782
-218.192
-192.703
-210.652
-209.957
-207.527
-198.691
-203.648
-207.702
-204.157
-193.806
-195.06
-205.02
-204.531
-199.004
-203.788
-202.737
-206.549
-208.156
-211.828
-213.821
-215.693
-219.462
-218.887
-220.591
16.505
33.6021
67.6448
47.2722
0.116523
-12.9461
-27.4045
-38.4932
-66.1855
-56.9884
-154.322
-168.678
-85.3232
-143.828
-141.241
-101.516
-126.491
-123.536
-149.513
-193.982
-189.357
-201.18
-188.861
-221.47
-216.089
-226.176
-222.461
-233.212
-235.091
-220.913
-226.514
-223.847
-214.893
-198.678
-209.928
-219.524
-220.631
-223.996
-205.79
-201.289
-209.729
-209.856
-199.415
-203.311
-201.839
-198.327
-202.376
-202.554
-209.274
-206.713
-209.113
-207.444
-207.574
-210.074
-209.298
-213.915
-213.339
-216.021
-218.981
-220.052
-221.156
-221.286
-221.922
16.788
6.2089
88.0488
85.069
36.5698
-7.56408
1.44952
-20.3181
-40.0861
-71.8956
-54.8375
-164.376
-173.074
-88.0634
-146.497
-144.287
-108.959
-135.456
-126.997
-160.349
-194.582
-214.859
-190.178
-230.768
-221.462
-235.209
-230.423
-242.843
-240.125
-227.857
-235.485
-227.069
-217.445
-215.497
-223.61
-229.376
-226.433
-229.627
-216.586
-202.7
-204.335
-198.853
-200.952
-205.582
-201.291
-201.672
-200.491
-203.346
-206.826
-205.337
-205.296
-207.711
-199.34
-207.714
-213.874
-211.035
-212.569
-217.482
-220.685
-216.861
-217.846
-221.759
-223.764
6.92329
20.6668
28.6968
29.974
55.3112
-12.5245
-1.40435
-23.3745
-45.5493
-31.4195
-80.9597
-72.1385
-63.6101
-167.929
-186.144
-97.5624
-162.279
-151.739
-108.681
-122.481
-139.948
-135.922
-167.518
-205.4
-218.418
-202.131
-231.444
-240.383
-240.933
-240.113
-256.11
-253.676
-236.342
-240.826
-235.208
-215.148
-222.281
-220.594
-232.49
-229.171
-229.047
-239.242
-203.702
-204.16
-205.128
-215.048
-204.886
-208.525
-207.757
-202.799
-206.024
-211.227
-213.419
-202.301
-208.144
-210.301
-218.951
-216.547
-221.235
-219.326
-224.4
-225.181
-224.716
11.3181
39.4122
10.9336
27.5385
30.0687
25.7087
37.6394
47.7034
-8.57088
-19.0104
0.596153
-45.8465
-33.6337
-89.691
-79.5325
-63.8868
-179.292
-189.093
-101.922
-167.366
-149.684
-162.015
-116.152
-129.883
-135.568
-178.875
-211.317
-234.457
-217.314
-241.978
-251.716
-252.099
-247.673
-267.088
-261.002
-259.291
-245.781
-248.183
-239.451
-220.518
-226.938
-214.801
-241.631
-235.09
-228.324
-218.803
-211.994
-205.98
-218.729
-204.274
-215.695
-208.355
-206.476
-214.031
-205.046
-213.13
-208.796
-215.47
-213.612
-213.637
-216.112
-220.279
-221.269
-223.508
-222.901
-225.035
-226.606
11.8869
3.32512
21.4668
22.0716
37.0015
36.5569
41.3272
-16.8384
-21.5796
-4.8858
-51.1074
-39.0967
-27.9549
-97.6043
-88.0868
-78.383
-57.6343
-72.081
-195.862
-112.513
-179.154
-156.496
-163.373
-126.297
-143.658
-182.698
-223.908
-237.438
-243.944
-218.841
-230.243
-253.028
-264.95
-259.792
-256.27
-284.221
-275.373
-270.249
-252.186
-255.104
-247.173
-229.573
-227.326
-219.04
-215.451
-245.97
-238.719
-235.32
-236.313
-223.615
-205.682
-209.944
-206.128
-208.743
-212.023
-209.71
-208.997
-206.929
-220.487
-209.652
-213.607
-207.191
-218.76
-211.018
-215.417
-216.604
-219.43
-220.12
-218.579
-220.795
-223.42
-227.258
-228.259
-227.929
7.4416
6.51151
21.0058
32.3722
30.0273
-17.6689
-7.80734
-49.2795
-38.905
-30.218
-99.8573
-94.8505
-92.1936
-64.4369
-74.7936
-193.824
-208.557
-114.363
-182.986
-155.002
-174.421
-126.61
-148.051
-232.696
-252.663
-258.299
-224.673
-238.296
-262.499
-279.767
-271.147
-263.816
-287.39
-295.917
-278.581
-276.592
-261.785
-254.273
-266.083
-218.207
-232.331
-214.512
-248.975
-242.454
-242.297
-231.73
-220.948
-218.219
-213.831
-210.227
-209.197
-211.709
-212.151
-210.393
-209.564
-209.272
-207.865
-211.9
-213.542
-210.001
-218.529
-219.175
-217.802
-219.967
-220.107
-223.053
-224.872
-225.299
-227.44
-229.849
16.536
14.8272
24.4055
18.3825
36.9129
-13.4508
-25.9222
-6.53812
-42.4372
-52.8114
-105.778
-92.6159
-70.6079
-60.3326
-83.4648
-206.782
-215.21
-120.964
-194.726
-160.954
-179.771
-133.39
-144.38
-158.443
-243.151
-268.318
-254.102
-269.471
-224.709
-230.848
-245.953
-277.234
-294.249
-277.952
-273.525
-300.421
-307.288
-292.057
-291.388
-268.209
-261.618
-266.969
-230.675
-236.377
-227.544
-215.948
-247.178
-255.301
-242.899
-239.496
-215.676
-221.744
-217.608
-209.262
-209.738
-210.209
-209.598
-213.993
-218.754
-211.059
-211.254
-216.086
-217.217
-222.962
-221.016
-225.887
-224.74
-225.233
-227.606
-230.002
-231.673
-230.887
11.0873
0.759593
32.0822
13.3832
30.8498
31.0079
-19.9962
-28.8291
-10.4524
-37.1421
-50.0147
-109.203
-97.5862
-73.2833
-69.3906
-83.6266
-205.695
-124.006
-194.192
-172.7
-141.505
-146.855
-163.87
-279.755
-277.568
-288.933
-231.085
-246.846
-262.167
-291.443
-295.574
-288.134
-282.744
-303.418
-310.425
-320.499
-298.856
-294.785
-279.544
-262.589
-272.366
-236.972
-227.849
-236.138
-210.931
-253.004
-261.49
-246.295
-240.245
-206.761
-210.155
-213.132
-211.099
-212.674
-213.5
-223.583
-220.818
-213.658
-215.846
-210.316
-218.229
-221.783
-221.223
-219.602
-223.315
-227.995
-227.188
-229.058
-231.33
-233.134
-6.65827
-2.02621
27.0336
18.5515
15.8075
33.5635
-25.8706
-16.495
-7.58322
-42.46
-53.419
-116.878
-104.503
-99.8137
-80.5965
-68.8464
-91.1987
-212.804
-128.929
-198.421
-179
-137.137
-152.633
-174.906
-160.78
-292.254
-278.517
-297.831
-242.842
-224.074
-262.546
-266.776
-310.554
-288.275
-314.556
-326.18
-336.686
-325.194
-312.703
-308.752
-283.526
-268.727
-273.817
-281.302
-233.861
-235.486
-220.548
-226.784
-227.102
-217.006
-260.57
-251.375
-265.855
-237.201
-216.075
-217.707
-215.193
-215.445
-211.18
-222.763
-227.206
-217.326
-224.209
-213.022
-215.193
-216.306
-223.331
-217.706
-226.04
-223.151
-225.848
-229.531
-234.94
-234.161
-234.343
-3.06544
24.0036
11.3919
-2.63126
29.6412
-27.899
-21.335
-13.2285
-39.1354
-59.64
-50.4941
-122.969
-113.273
-101.633
-81.8265
-73.2276
-97.0835
-210.103
-129.653
-194.247
-144.424
-153.538
-179.016
-172.054
-303.539
-283.878
-319.102
-246.692
-261.098
-237.223
-280.36
-281.731
-324.727
-299.864
-325.775
-337.608
-342.05
-338.02
-314.236
-311.595
-292.561
-281.292
-284.905
-246.574
-239.694
-240.171
-237.917
-233.619
-225.52
-263.52
-248.842
-276.18
-257.655
-225.298
-220.464
-221.417
-219.948
-216.162
-222.247
-237.303
-218.852
-227.945
-218.54
-217.925
-224.018
-226.798
-229.493
-224.824
-231.79
-230.949
-233.303
-230.607
-234.302
-236.613
-1.29697
14.1241
-0.0620191
16.2637
31.8561
30.7504
-31.5871
-18.8606
-9.31078
-43.8451
-63.2812
-54.4362
-119.66
-111.717
-105.507
-77.3123
-93.854
-70.1198
-222.669
-136.69
-199.582
-142.781
-160.024
-192.568
-176.089
-298.244
-320.4
-328.572
-258.658
-264.633
-235.645
-283.392
-335.093
-305.837
-338.726
-348.83
-358.38
-327.456
-318.436
-302.495
-299.615
-281.697
-293.714
-251.028
-255.027
-239.703
-234.93
-240.431
-228.515
-262.004
-269.189
-274.308
-213.612
-219.63
-218.599
-225.278
-223.695
-219.14
-219.637
-216.919
-218.103
-229.31
-217.305
-227.118
-223.427
-227.246
-233.821
-230.345
-228.749
-231.194
-237.143
-238.093
-237.903
10.0197
1.8679
30.5957
25.7356
31.0143
-29.8513
-22.8961
-10.1682
-40.401
-59.8971
-51.202
-126.782
-116.406
-105.162
-77.9193
-95.8584
-72.9244
-221.836
-134.732
-209.737
-150.639
-157.539
-171.294
-197.929
-189.965
-315.663
-337.759
-348.38
-268.577
-272.783
-246.209
-296.737
-349.882
-317.345
-351.259
-340.571
-359.944
-367.78
-373.226
-336.303
-330.324
-309.752
-306.054
-288.897
-293.362
-245.223
-253.214
-254.031
-235.687
-238.373
-245.941
-225.462
-263.956
-265.618
-281.629
-218.235
-224.953
-230.747
-226.372
-227.728
-227.7
-231.599
-227.135
-224.756
-222.852
-225.249
-228.761
-225.312
-231.907
-235.739
-233.429
-234.87
-238.369
-240.092
0.380147
26.8911
-4.4852
15.5638
9.83573
32.6258
-34.182
-21.6791
-16.1555
-7.57689
-44.2789
-61.5818
-56.9263
-123.582
-114.523
-106.864
-83.2606
-90.7653
-68.6992
-242.003
-143.298
-207.923
-150.978
-164.466
-172.235
-190.23
-313.081
-334.9
-350.563
-359.64
-285.456
-260.952
-285.808
-311.62
-369.99
-324.135
-367.462
-350.962
-373.679
-379.822
-379.136
-349.228
-338.892
-319.359
-311.983
-285.494
-299.735
-256.189
-257.708
-251.472
-245.203
-243.698
-240.45
-227.715
-261.532
-271.592
-281.691
-223.313
-226.718
-228.128
-226.559
-224.406
-224.065
-220.18
-222.963
-227.504
-226.148
-227.156
-231.059
-235.029
-234.975
-235.92
-240.915
-239.367
-241.588
3.28917
15.2853
-1.0613
22.9291
13.0809
12.8325
28.5909
-31.5636
-25.8278
-18.7201
-9.97829
-42.9461
-56.4123
-131.047
-117.213
-100.537
-84.7342
-94.7078
-71.432
-244.565
-141.71
-215.358
-160.391
-183.54
-200.991
-334.334
-342.789
-371.316
-379.732
-282.064
-293.579
-273.818
-306.82
-334.016
-383.917
-335.9
-375.667
-365.727
-384.05
-393.943
-355.138
-349.911
-325.688
-322.012
-309.408
-295.237
-297.179
-249.057
-261.415
-248.265
-251.419
-231.296
-235.49
-249.412
-238.475
-231.645
-265.118
-274.928
-281.028
-222.991
-233.528
-227.823
-223.175
-233.971
-223.765
-225.399
-227.423
-229.944
-232.017
-235.539
-232.346
-238.179
-238.244
-241.31
-243.114
-242.989
-1.4069
10.8134
-2.75894
26.6994
15.279
10.6977
-35.7892
-24.0242
-14.6036
-7.50411
-46.3051
-50.9946
-61.1638
-130.257
-123.269
-110.544
-103.3
-78.0985
-92.6123
-67.8124
-265.831
-234.507
-149.57
-215.91
-156.003
-183.113
-212.384
-341.725
-364.852
-385.002
-380.184
-296.126
-305.786
-339.23
-401.215
-334.831
-388.66
-382.301
-401.092
-408.452
-407.11
-374.366
-350.376
-326.396
-314.194
-295.026
-309.56
-257.586
-262.434
-248.745
-246.475
-238.14
-234.933
-245.269
-243.004
-232.706
-272.665
-278.47
-287.813
-223.528
-227.602
-233.875
-227.399
-233.892
-226.308
-225.658
-228.281
-233.409
-232.889
-238.849
-232.579
-234.608
-238.801
-240.528
-243.285
-245.302
3.77447
7.6692
-1.01616
21.9176
16.917
13.9078
10.7968
-34.3654
-24.5927
-18.9833
-11.0512
-44.2593
-52.7174
-61.91
-133.763
-125.526
-119.956
-100.748
-81.2385
-94.0772
-71.7061
-262.441