/*--------------------------------*- C++ -*----------------------------------*\
| =========                 |                                                 |
| \\      /  F ield         | OpenFOAM: The Open Source CFD Toolbox           |
|  \\    /   O peration     | Version:  v1912                                 |
|   \\  /    A nd           | Website:  www.openfoam.com                      |
|    \\/     M anipulation  |                                                 |
\*---------------------------------------------------------------------------*/
FoamFile
{
    version     2.0;
    format      ascii;
    class       surfaceScalarField;
    location    "10000";
    object      phi;
}
// * * * * * * * * * * * * * * * * * * * * * * * * * * * * * * * * * * * * * //

dimensions      [0 3 -1 0 0 0 0];
oriented        oriented;


internalField   nonuniform List<scalar> 
118861
(
3.77075e-10
3.93146e-10
4.23275e-10
4.56889e-10
4.71326e-10
4.74982e-10
4.78996e-10
4.78161e-10
4.71826e-10
4.96008e-10
5.80453e-10
-3.68664e-10
3.68576e-10
-3.66106e-10
-6.27281e-09
9.85824e-11
-3.9241e-10
2.09757e-10
-3.66525e-11
7.72177e-12
1.41504e-09
2.46997e-12
-1.48174e-09
2.19208e-09
-9.80801e-10
-6.30244e-10
3.93103e-10
-4.52336e-09
3.17863e-09
3.09827e-09
1.1909e-11
5.73326e-09
3.24569e-11
9.78021e-09
7.01861e-11
1.59091e-08
-2.34663e-10
1.33901e-10
2.47212e-09
-5.95919e-08
-7.1773e-08
-8.55526e-08
9.98797e-07
1.26235e-06
-1.41151e-07
1.58669e-06
-1.69868e-07
1.61935e-06
7.84821e-07
1.15893e-07
-1.01343e-07
1.98536e-06
-2.02527e-07
2.02265e-06
-2.86732e-07
4.58223e-07
3.45405e-07
2.8774e-09
2.78164e-09
-2.94528e-09
4.58291e-07
5.97627e-07
-1.86558e-08
6.01613e-07
4.87796e-08
7.69671e-07
-7.74009e-07
-2.26414e-08
9.81808e-07
-9.86621e-07
-2.69787e-08
-1.24857e-06
-3.17911e-08
-1.5709e-06
-3.73447e-08
4.61949e-07
3.92101e-08
6.11182e-07
9.3774e-08
4.70329e-07
7.45631e-08
1.29107e-06
2.36435e-07
1.02406e-06
1.92757e-07
8.06942e-07
1.5504e-07
8.72265e-08
1.27885e-07
-1.21717e-09
1.83024e-07
-1.66915e-09
1.83507e-07
1.28334e-07
6.40242e-09
2.54767e-07
2.58604e-09
-2.15238e-09
2.55201e-07
-8.81432e-09
2.58082e-07
2.69946e-06
2.7446e-06
2.78101e-06
-2.8034e-06
3.45692e-07
1.49974e-08
-1.17006e-08
3.4899e-07
3.08308e-08
-2.36205e-08
3.56203e-07
5.80846e-08
-2.64617e-06
1.33475e-06
1.06177e-06
1.47982e-07
1.66965e-06
-1.876e-07
1.09509e-06
1.37437e-06
-1.4052e-06
-9.3529e-08
2.08043e-06
2.8789e-07
-2.34028e-07
2.1343e-06
2.07111e-07
1.71607e-06
1.62018e-07
-1.24383e-07
1.75371e-06
-9.03195e-08
2.17938e-06
1.57804e-07
-1.20509e-07
1.78389e-06
2.21667e-06
1.05862e-07
-7.68842e-08
2.24565e-06
3.23854e-08
9.7165e-09
-1.27228e-09
3.94116e-08
3.84824e-09
6.17679e-08
-1.10138e-08
2.34615e-08
-1.63293e-08
2.55675e-08
2.43007e-09
2.64145e-07
4.41783e-08
-3.26908e-08
5.69553e-09
7.03916e-11
3.9155e-11
-8.41067e-12
5.73239e-09
-1.07445e-10
9.77711e-09
-2.38652e-10
7.77815e-10
-4.44741e-10
3.16653e-09
5.85621e-09
-2.10658e-10
9.9832e-09
-4.41947e-10
1.62264e-08
1.46927e-09
-8.39592e-10
6.49166e-08
-5.27074e-07
2.42156e-08
4.1005e-07
4.73358e-08
-4.02236e-07
1.11977e-06
6.64946e-08
5.37867e-07
-1.72081e-08
6.79899e-07
-3.50082e-08
6.88456e-08
-4.96073e-08
6.94494e-07
-2.44671e-08
8.85963e-07
4.81842e-08
-3.44935e-08
1.41241e-07
2.00079e-07
-2.78628e-08
2.75635e-07
-3.94398e-08
2.11661e-07
2.90476e-07
3.37493e-08
-2.34805e-08
3.00744e-07
1.63826e-08
2.19238e-07
1.08203e-08
6.55795e-08
9.72181e-08
1.91078e-08
-1.2734e-08
2.65283e-08
4.08347e-08
7.2022e-09
-4.55203e-09
2.83203e-08
4.3485e-08
8.23301e-09
-5.16011e-09
1.49996e-07
1.59034e-08
1.55425e-07
6.93335e-09
3.06306e-07
1.19749e-08
3.7011e-07
-3.8865e-07
-5.42806e-08
2.23125e-07
8.16484e-09
1.58059e-07
5.42136e-09
1.44694e-09
7.95282e-11
-1.60706e-11
1.50774e-09
-3.01297e-11
6.0945e-09
1.03808e-08
-8.38474e-10
1.68561e-08
2.76e-09
-1.58476e-09
3.29766e-09
3.92587e-10
-1.44052e-10
1.62166e-09
-3.36142e-11
1.11243e-08
1.19648e-08
4.28979e-10
-1.95588e-10
1.74876e-09
7.07898e-11
-1.44363e-11
6.54039e-09
9.30334e-10
-7.04143e-09
3.5432e-09
4.35362e-10
-3.81785e-09
-1.60715e-10
1.8032e-08
3.09802e-09
-1.77091e-09
3.03824e-08
1.93721e-08
1.4932e-09
-8.31193e-10
4.65707e-08
-4.8219e-08
-2.54943e-09
7.00804e-08
-4.19789e-09
1.03602e-07
1.04756e-08
-6.71759e-09
7.26001e-08
-1.50951e-09
1.07359e-07
4.29916e-09
-2.59049e-09
4.88606e-08
7.36626e-08
-1.30961e-09
1.09068e-07
3.48323e-09
-2.1726e-09
7.27473e-09
1.23671e-08
-1.28338e-10
3.14387e-08
8.68002e-10
2.00339e-08
4.79775e-10
-2.59056e-10
1.80511e-09
-3.65602e-12
3.94265e-09
6.01324e-11
-1.85323e-11
3.97717e-09
1.81999e-09
2.27454e-11
-4.01404e-12
7.34293e-09
-5.81107e-11
3.18184e-08
7.75101e-10
3.21487e-08
4.93951e-08
-6.42626e-11
1.24922e-08
-1.25371e-10
2.02546e-08
4.4451e-10
-2.44013e-10
1.26109e-08
2.04551e-08
1.66398e-11
3.55937e-12
7.41024e-09
-4.01615e-12
4.01253e-09
-7.29088e-12
1.13807e-06
8.99654e-07
2.56014e-08
1.15019e-06
5.45118e-07
5.49037e-07
4.15284e-07
7.39445e-09
7.0452e-07
1.71148e-08
-1.1314e-08
7.10323e-07
5.70163e-09
9.08139e-07
-4.38392e-09
5.67663e-09
1.42903e-06
5.44776e-08
-3.7715e-08
1.44579e-06
9.73671e-10
4.17933e-07
-5.08229e-09
-4.25145e-09
1.14036e-07
1.67349e-08
-1.20274e-08
1.64886e-07
-4.24126e-08
2.25868e-07
7.45117e-08
-1.92092e-10
1.10379e-07
-4.41929e-10
1.59997e-07
1.70422e-09
-9.13258e-10
3.10099e-07
4.74207e-09
-3.11905e-07
-2.92897e-09
1.83576e-09
-3.34956e-12
8.34636e-13
1.1085e-07
-1.10316e-07
1.60792e-07
-1.60182e-07
2.12211e-09
2.27093e-07
-3.43841e-09
-2.26385e-07
2.73054e-09
7.47615e-08
-1.58771e-09
4.95127e-08
-1.14466e-09
7.43039e-08
8.30745e-09
3.21963e-08
-7.75277e-10
2.04694e-08
-4.95683e-10
1.26113e-08
-2.96269e-10
1.83325e-09
6.33569e-12
4.00859e-09
2.94656e-11
7.40639e-09
-1.62111e-10
7.77234e-11
3.19167e-08
4.91433e-08
5.53066e-09
-3.53847e-09
3.32841e-08
7.70796e-08
2.90529e-08
5.11259e-08
1.92375e-08
-1.2281e-08
1.24772e-08
2.027e-08
2.17109e-09
-1.25497e-09
7.32201e-09
6.71623e-10
1.81012e-09
-2.4182e-11
3.96033e-09
3.1156e-10
-1.15533e-10
1.1536e-06
9.0943e-07
5.88968e-08
1.45233e-06
8.24832e-08
-6.93431e-08
1.16404e-06
5.48418e-07
7.10341e-07
5.0147e-08
-7.18092e-07
-4.23957e-08
9.18179e-07
2.64449e-07
-9.65485e-07
-2.17144e-07
7.59586e-07
2.4397e-07
5.55574e-07
1.75649e-07
5.91787e-07
1.9288e-07
4.171e-07
3.524e-08
1.83412e-06
1.46547e-06
3.80399e-07
-3.18434e-07
2.31953e-07
-5.98644e-08
1.27395e-07
2.5381e-07
1.82329e-07
6.02275e-08
-4.17367e-08
3.11092e-07
2.8528e-08
-2.23025e-08
3.17316e-07
-8.1722e-08
3.43785e-07
-8.39916e-08
4.23811e-07
1.39434e-07
-1.08191e-07
4.55054e-07
1.49672e-07
-1.13602e-07
1.21803e-06
-3.03746e-07
1.52743e-06
-3.73296e-07
1.90582e-06
-4.54092e-07
1.28758e-06
1.60823e-06
-6.98107e-07
1.02526e-06
5.85442e-07
6.34996e-07
8.1066e-07
4.85537e-07
-3.97441e-07
-5.48162e-07
8.6899e-08
2.79567e-08
2.00807e-07
3.73392e-07
2.77574e-07
1.95139e-07
-1.46233e-07
1.41175e-07
1.05967e-07
9.67375e-08
7.40645e-08
4.91124e-07
3.20202e-07
-2.52996e-07
2.11813e-08
7.50441e-09
1.30605e-08
4.32529e-09
1.90147e-09
-8.44452e-11
4.15636e-09
-4.01049e-10
7.67535e-09
2.3019e-09
-1.07897e-09
4.83428e-09
2.21807e-09
3.51743e-10
-7.31807e-11
5.80863e-08
1.81145e-08
3.80607e-08
1.13408e-08
2.43523e-08
6.81365e-09
4.25878e-08
6.48599e-08
4.98512e-08
-3.22234e-08
1.50839e-08
3.87499e-09
8.89828e-09
2.03427e-09
-9.51677e-10
2.7291e-08
1.98746e-08
1.69246e-08
1.15642e-08
5.83949e-08
8.48989e-10
8.75947e-08
4.48717e-09
3.84808e-08
5.68567e-10
-3.86828e-08
5.86745e-08
3.04245e-09
-5.97179e-08
-1.99906e-09
8.90395e-08
-9.19016e-08
-5.89823e-09
1.3025e-07
-1.34093e-07
-8.77354e-09
1.85919e-07
1.75574e-08
-1.90849e-07
-1.26162e-08
2.49325e-08
3.66568e-10
-2.5073e-08
1.58069e-08
2.26062e-10
-1.59011e-08
-1.31007e-10
8.39211e-07
1.14667e-07
-8.66722e-07
-8.71585e-08
4.86807e-07
-5.09493e-07
-7.28208e-08
6.30393e-07
1.22771e-07
-6.57658e-07
-9.55063e-08
1.8063e-06
1.63251e-08
-1.81706e-06
-5.56743e-09
2.2617e-06
1.21914e-07
-9.95473e-08
2.28407e-06
-2.36765e-06
-4.52095e-07
1.4056e-09
-1.4152e-09
-2.55834e-12
3.07772e-09
3.26793e-11
-3.09824e-09
-1.21602e-11
6.53633e-10
7.12234e-07
8.98762e-07
-6.17199e-07
5.58341e-07
4.92441e-07
4.31249e-07
3.85446e-07
3.56199e-08
2.23032e-08
3.3931e-08
2.42708e-08
1.67402e-08
1.05117e-08
8.24854e-08
5.49367e-08
6.46918e-08
-4.69059e-08
1.73082e-07
1.20951e-07
1.22368e-07
-8.91744e-08
2.41072e-07
-1.66441e-07
3.26505e-07
2.96079e-07
-2.23608e-07
8.79676e-10
5.0484e-09
9.99408e-09
6.18567e-09
-1.32729e-08
5.43421e-09
2.90683e-09
-7.26141e-09
2.49533e-09
1.07963e-09
-3.34891e-09
-2.26043e-10
-9.91063e-06
3.59845e-06
-1.08941e-05
9.83418e-07
-1.67767e-05
2.03751e-05
3.67418e-08
-7.60932e-06
-1.09308e-05
7.17851e-06
-6.1951e-06
5.90803e-05
2.79844e-05
-7.5726e-06
-1.10117e-05
-4.6285e-06
8.0888e-08
6.37684e-06
-7.84909e-06
9.8118e-06
-1.25719e-05
0.0001087
-4.37772e-06
0.000116114
3.23621e-05
-2.9441e-06
-1.56402e-05
-9.73092e-06
-3.92378e-06
-1.47225e-06
-2.76014e-06
-1.96332e-06
3.54762e-06
0.000111736
2.53383e-05
0.000141981
7.02382e-06
4.77463e-06
-7.71874e-06
-5.63437e-06
-6.61393e-06
-9.02629e-06
1.89004e-06
-1.1621e-05
-5.39603e-06
-7.21286e-06
7.6612e-06
-1.04213e-05
9.52399e-06
1.81683e-06
-5.51094e-06
-1.54576e-06
3.75739e-06
0.000167319
1.17984e-05
-2.08438e-06
-6.51518e-06
-1.22483e-05
-8.30172e-06
-1.95114e-08
-9.00678e-06
-7.63395e-06
-6.09731e-06
-3.31925e-06
4.4834e-07
-8.97356e-07
-3.69411e-06
4.90637e-06
-5.30315e-06
-7.68202e-07
2.7455e-06
0.000139604
1.83136e-05
2.77154e-05
-8.59957e-06
-1.19993e-05
1.74389e-06
-1.39922e-05
-6.51798e-07
-8.32123e-06
-8.35498e-06
-4.6658e-06
-1.53664e-06
-9.41656e-06
-4.45803e-06
-6.42917e-06
5.87335e-06
-6.77071e-06
5.89626e-06
-4.55886e-06
1.21226e-06
-7.44286e-07
4.4323e-06
-3.51371e-06
-1.20082e-06
2.32521e-06
0.000321833
4.60289e-05
-5.21387e-06
3.39971e-06
-1.02554e-05
-9.32641e-06
-8.97303e-06
-1.30208e-05
-7.4329e-06
-6.51864e-06
-2.07444e-06
-2.89793e-06
-4.07855e-06
1.97114e-06
-5.5582e-07
-8.74452e-07
4.92256e-06
-3.3466e-06
-5.17658e-06
1.57596e-06
-3.52603e-06
9.1859e-07
-1.00541e-06
1.88595e-06
0.000147949
0.000173884
5.12428e-05
-4.20101e-05
-1.81417e-06
1.06097e-05
-1.45871e-05
4.33175e-06
-1.58565e-05
-1.99361e-05
-1.08603e-05
-6.89859e-06
-2.16052e-06
-1.54097e-05
-3.35436e-06
-8.59308e-06
9.43479e-07
-6.97648e-06
-2.95143e-06
5.91663e-06
4.46714e-06
-6.47245e-06
4.08937e-06
-5.34159e-06
2.9652e-06
-3.60063e-06
-2.60744e-06
-2.89137e-06
3.1016e-06
-8.77543e-07
0.000189959
0.000364234
9.23267e-06
1.40423e-05
-3.97742e-06
-1.15247e-05
1.54682e-05
-4.52641e-06
-1.77589e-05
-1.75703e-05
-7.44373e-06
-9.53656e-06
-1.95703e-06
-6.033e-06
-2.00531e-06
-1.25222e-06
-6.35427e-07
-5.70904e-06
3.86212e-06
2.10233e-07
-2.52524e-06
-2.45087e-06
1.64769e-06
1.47203e-07
2.53274e-06
9.34958e-05
9.64631e-05
0.000230039
2.3275e-05
-1.94456e-05
3.94343e-06
-2.35002e-05
1.89737e-05
-2.49287e-05
9.84179e-09
-1.01361e-05
-7.62271e-06
1.04895e-05
-1.91789e-05
1.60869e-06
-2.43012e-05
-5.4867e-06
-9.5464e-06
-1.60479e-06
-7.99003e-06
2.74616e-06
-4.75147e-06
2.77046e-06
-4.02268e-06
2.28884e-06
-4.49754e-06
5.0132e-06
-1.84693e-06
-2.315e-06
-8.03183e-07
-2.38554e-06
6.02473e-07
2.17236e-06
0.000110411
4.3242e-05
-1.69151e-05
0.000326502
2.23862e-05
-1.99671e-05
5.48313e-06
3.1929e-05
-1.84427e-05
8.01048e-07
-5.95496e-06
-1.01263e-05
-1.81122e-05
4.02933e-06
-8.68947e-06
-2.26925e-05
2.06472e-05
-7.77555e-06
-7.94162e-06
2.83685e-06
-9.59482e-06
-2.26704e-06
-1.98102e-06
-1.73383e-06
-3.58298e-06
5.15656e-07
-3.20943e-06
-4.27485e-06
1.3625e-06
1.95985e-06
-3.18872e-06
-1.56989e-06
6.17704e-07
2.56553e-06
0.000239991
-1.62166e-05
0.000126628
2.63269e-05
-2.93035e-05
2.4191e-06
-2.64458e-05
2.65928e-05
1.34862e-05
-3.25478e-05
2.77604e-05
-2.69594e-05
2.20633e-06
-1.41556e-05
-1.40829e-05
8.55295e-06
-2.93367e-05
-2.04534e-06
-4.46468e-05
-1.06124e-05
-1.0148e-05
-6.75797e-06
-9.7617e-07
-2.69377e-06
2.40663e-06
-4.67367e-06
1.60196e-06
-5.31682e-06
-2.91235e-06
-1.22888e-06
-2.68573e-06
1.55247e-06
1.11584e-06
-1.94782e-06
1.35086e-06
2.35067e-06
0.000223774
0.000155931
1.87931e-05
-2.97654e-06
3.11843e-05
-1.6374e-05
1.46962e-07
-1.7698e-05
-4.78734e-06
-4.51856e-05
1.76874e-05
-1.19493e-05
2.12335e-06
-2.26358e-05
-2.07837e-05
-4.66921e-05
-7.73414e-06
-2.70101e-06
-7.91138e-06
-9.17178e-06
-2.54172e-06
-2.87144e-07
-3.07171e-06
-3.73409e-06
3.9323e-07
-5.71005e-06
1.56485e-07
-3.70628e-07
-2.78135e-06
2.00043e-06
-1.13326e-06
-8.31983e-07
-9.99809e-07
1.42517e-06
2.80391e-06
0.000309222
8.18549e-05
7.40762e-05
-1.57002e-05
1.58166e-05
1.48103e-05
4.03983e-05
-4.87323e-05
4.88793e-05
-4.37769e-05
2.60789e-05
-2.74982e-05
-1.40726e-05
3.20019e-06
-2.05125e-05
-3.20911e-05
1.13074e-05
-4.29401e-05
-3.75207e-06
-1.04352e-05
-8.06787e-06
2.73698e-06
-1.2372e-05
-2.82887e-06
6.62381e-07
-2.50019e-06
-3.34086e-06
2.1699e-07
-5.55356e-06
-3.28679e-07
-2.37106e-06
-7.80921e-07
-1.64554e-06
-1.52261e-06
5.12279e-07
-2.26043e-06
6.90632e-07
1.26062e-06
-1.37874e-06
2.10715e-06
2.29722e-06
0.000391077
8.97764e-05
2.92131e-05
1.16379e-07
-1.44028e-05
5.42209e-05
-8.33406e-06
5.10237e-06
-2.8142e-05
6.83301e-05
-7.6561e-05
6.18307e-05
5.7172e-05
-8.93289e-05
-1.08725e-05
2.23576e-06
-1.7373e-05
-3.13946e-06
-2.29451e-05
-9.14602e-06
-3.16326e-05
3.18782e-05
-6.09241e-05
-1.31721e-05
-8.28486e-06
-3.26996e-06
-1.31082e-05
-9.63499e-06
-1.83781e-06
-4.97231e-06
1.63145e-06
-4.39872e-06
-1.01765e-06
-5.33657e-06
-2.69974e-06
2.56091e-06
-1.38831e-07
-2.42646e-06
-1.01034e-06
5.69901e-07
-1.5698e-06
-1.18122e-07
-1.90072e-07
1.81008e-06
2.11207e-06
7.51625e-05
0.000227785
0.000163292
1.46139e-05
2.93295e-05
-4.25809e-05
3.98181e-05
-6.32278e-05
6.82269e-05
4.01881e-05
-1.47303e-05
-3.21569e-05
-1.51373e-05
-2.60846e-05
9.77864e-06
-4.10242e-05
2.45576e-07
-3.08432e-05
-3.00809e-05
-9.90217e-06
-1.15548e-05
1.1692e-05
-2.27432e-05
-3.95466e-06
-2.76727e-06
1.85489e-06
-6.35422e-06
-6.40843e-07
-2.56529e-06
-1.58024e-06
-2.11639e-07
-9.99899e-07
-1.47514e-06
8.68863e-07
-9.86986e-07
-1.58718e-07
1.28507e-06
-3.0199e-07
1.12526e-06
1.79052e-06
2.3479e-06
0.000302947
0.000597199
5.71947e-05
6.57925e-05
-1.32514e-05
0.000135385
-2.59744e-05
4.99916e-06
-9.51965e-05
8.1112e-05
-9.93934e-05
8.46631e-05
-0.00012305
-0.000113269
-2.49159e-05
-1.63059e-05
1.19877e-05
-2.885e-05
-1.21742e-05
-3.05976e-05
1.91339e-05
-7.05425e-05
1.03654e-05
-4.92148e-05
-2.15941e-05
-1.0914e-05
-1.10512e-05
-1.62966e-05
-5.80955e-06
-2.35365e-06
-9.12376e-07
4.71078e-07
-6.99507e-06
-1.79188e-06
-8.41181e-07
-1.35086e-06
-6.06278e-07
-1.1457e-06
1.59811e-07
8.23263e-07
1.11573e-06
-5.5738e-07
2.1987e-06
2.11395e-06
0.000321407
0.0001886
0.000114348
6.40702e-05
0.000275792
-6.87548e-06
5.25411e-05
-7.18086e-05
0.00010941
0.000128049
-0.000182295
8.7098e-05
-1.82814e-05
-3.83871e-05
-4.27264e-05
-2.82936e-05
-8.61931e-06
-1.68624e-05
2.52985e-05
-4.09631e-05
1.73494e-05
-3.74727e-05
-5.14085e-05
-3.88494e-05
-5.10322e-06
-1.64909e-05
-6.73133e-06
-3.5595e-06
-4.18265e-06
-2.73478e-05
1.54669e-05
-6.28063e-06
-3.26603e-06
-4.4102e-07
5.12339e-06
-6.52399e-06
-2.19204e-06
-5.0551e-07
-1.00768e-07
-9.57175e-07
-1.80614e-06
-1.8853e-07
-5.06321e-07
-9.97842e-08
6.66132e-07
-2.92466e-07
5.58348e-07
8.47495e-08
2.07875e-06
0.000510007
0.000178418
5.60229e-05
0.000530924
6.49331e-05
-1.92675e-05
0.000109065
3.45401e-07
-5.42452e-05
-0.00013585
0.000222948
-0.00021994
-0.000143496
0.000114626
-0.000132908
0.000105109
-0.000154157
4.19268e-05
-0.000118395
-8.46531e-05
2.58854e-05
-3.69129e-05
3.13334e-06
-3.42118e-05
-4.08498e-05
-1.56646e-05
-2.01233e-05
2.00044e-06
-7.72939e-05
-2.05701e-05
-1.29314e-05
-3.08022e-06
-1.02908e-05
-9.30604e-06
-1.1881e-05
-5.22089e-06
-1.40061e-06
-1.05974e-06
-3.70705e-06
-3.85898e-07
-4.76679e-06
-4.05726e-07
-1.05794e-06
1.59242e-06
5.34476e-07
-1.99467e-06
-6.06106e-07
-5.28874e-07
3.73665e-07
-8.4827e-07
1.08722e-06
9.33018e-07
2.02014e-06
0.000453984
0.000234441
0.000858462
7.73078e-06
0.000106937
-4.20035e-05
-0.000184056
8.97974e-05
0.000220285
-9.42589e-05
9.99118e-05
-0.000274447
0.000138597
3.00833e-06
0.000252277
-2.88694e-05
-1.45134e-05
-4.90482e-05
-7.64678e-05
-5.87678e-05
1.60162e-05
-4.00462e-05
-3.10784e-05
2.71446e-05
-5.65144e-05
-4.72679e-05
5.17078e-06
-7.52935e-05
-2.78972e-05
-5.05274e-06
-9.85121e-06
-1.55173e-05
-3.8159e-07
-1.3371e-05
-8.92445e-06
-6.6215e-06
-5.15269e-06
-1.99815e-06
-1.4602e-06
-2.49205e-06
-5.31724e-07
-1.5521e-07
-7.43818e-08
2.38951e-07
-2.79223e-07
1.11866e-06
-1.85646e-07
1.04537e-07
-1.75001e-06
2.29936e-06
1.86905e-06
1.30658e-06
0.000446253
0.000177737
0.000111552
7.66669e-05
5.67037e-05
0.000866193
3.02697e-05
0.000142053
-0.000184201
0.000126026
-0.000174536
0.000189476
-0.00011368
0.000255286
0.000121284
-0.000238524
-0.000150153
0.000136474
-0.000150988
6.06215e-05
6.16567e-05
-0.000137089
-0.000120424
-2.403e-05
9.72944e-06
-3.62492e-05
-4.58689e-05
-2.93698e-05
-4.20971e-05
-2.94245e-05
-4.0846e-05
-3.29499e-05
-2.53685e-05
-1.37526e-05
-7.14095e-06
-1.7835e-06
-4.42466e-06
-2.66064e-06
-2.19684e-06
-3.95225e-06
8.86149e-07
6.17124e-07
-2.8843e-06
-1.14885e-06
-2.29592e-07
1.34414e-07
8.39438e-07
-8.11108e-08
5.4935e-07
5.4806e-07
5.62467e-07
1.48352e-06
1.78437e-06
0.000334701
0.000289289
0.000133371
-0.000159564
0.000587191
0.000214471
-4.21482e-05
0.000355132
-0.000151524
0.00027755
-0.000230481
1.49404e-05
0.000168539
0.000276902
-0.000282219
0.000377771
-9.98469e-05
-0.000117241
-0.000208338
-1.36789e-05
-9.0366e-05
-7.54326e-05
-7.95784e-05
-3.37594e-05
-2.65198e-05
-7.52387e-05
2.72686e-05
1.16032e-05
-6.93658e-05
-4.11099e-05
-7.02705e-05
-2.63533e-05
-6.59663e-06
-2.58584e-05
-5.926e-06
-1.33165e-05
-1.20521e-05
-1.82875e-05
-2.5413e-06
-7.82663e-06
-4.59965e-06
-6.20816e-06
3.2908e-06
-2.91735e-06
-4.85748e-06
-3.0661e-06
-2.26717e-06
-9.51799e-08
-8.52882e-07
-2.95967e-07
-1.5307e-06
-2.07136e-07
2.91379e-07
1.26025e-07
-6.73594e-07
1.09741e-06
1.23606e-06
-3.0085e-07
2.00882e-06
1.45927e-06
0.000185971
0.000494265
0.00011126
0.000103318
0.00012563
2.21107e-05
0.000427627
8.88405e-05
0.000188333
0.000203608
4.70694e-05
0.000280043
-0.000261962
-0.000209231
-5.31742e-06
-0.000271871
0.000277924
9.10976e-05
-0.000238311
-0.000222017
7.90967e-05
-0.00020855
6.42018e-05
-0.000169463
-0.000139634
-3.84686e-05
-6.82167e-05
-3.81229e-05
-7.90107e-06
-4.79701e-05
-5.77626e-05
3.36444e-05
-0.00011138
-3.2455e-05
-8.06583e-06
-1.92425e-05
-3.03396e-05
-1.03679e-05
-3.87863e-06
-7.89045e-06
2.11155e-06
-7.77483e-06
-5.17765e-06
-7.36473e-07
-4.31479e-06
-9.48063e-07
-1.82667e-06
1.45109e-06
8.42415e-08
4.33443e-07
-1.30825e-06
1.43427e-06
-2.39915e-06
-3.49201e-07
4.23814e-07
9.35208e-07
5.49555e-07
1.73174e-06
1.49365e-06
0.000680236
0.000214578
0.000147741
0.000990996
0.000362092
-3.03753e-05
-0.000273252
0.000405353
0.000327112
-0.00021702
0.000428824
-7.64346e-05
-2.36508e-05
6.264e-05
0.000261239
-0.000277189
-0.0001509
-0.000147213
-1.34668e-05
-0.000129454
-0.000105261
-7.14177e-05
-0.000106685
-4.6024e-05
-8.16145e-05
-5.58352e-06
-5.72951e-05
-5.98644e-06
-5.21791e-05
-7.7736e-05
-4.05208e-05
-8.42249e-06
-9.95807e-06
-6.48931e-06
-1.082e-05
-2.03815e-05
-1.17691e-05
-5.66329e-06
-4.70274e-07
-8.62863e-07
-6.13356e-06
-5.05126e-06
-3.75582e-07
-5.0738e-06
-8.74809e-07
-9.64878e-07
1.44505e-07
7.46117e-08
-3.32565e-07
7.90703e-07
8.82118e-07
2.38088e-07
5.28564e-07
1.78077e-06
1.64169e-06
0.000368611
0.000509603
0.000311625
0.000157547
5.70313e-05
0.000178116
0.000331717
0.000132101
0.000110092
0.000352389
-0.00028489
0.000119899
-0.000398396
0.000380251
-0.000317611
-1.59491e-05
-0.000361422
0.000247496
0.000238953
-0.000267112
6.76289e-05
-0.00025242
4.1306e-05
-0.000197082
2.24009e-05
-0.000146567
-9.38187e-05
-2.31511e-05
-9.12859e-06
-8.35341e-05
6.10408e-06
-4.00376e-05
-6.86074e-05
-2.43194e-05
-6.28786e-05
-5.81655e-05
-4.66249e-05
-1.83806e-05
-1.73093e-05
-1.57132e-06
-3.26243e-05
-1.88102e-05
-5.08345e-06
-1.12988e-05
-6.99643e-06
2.25452e-08
-5.91774e-06
3.57425e-06
-5.44939e-06
-4.53913e-06
1.61151e-06
-2.48632e-06
2.19116e-07
-1.55568e-06
4.58137e-07
3.53553e-07
-2.74292e-07
7.66651e-07
4.96339e-07
1.39071e-07
1.93147e-06
1.21817e-06
0.000878214
0.000469172
0.000235148
0.000352351
0.000103286
-2.06347e-05
0.000618142
-0.000558454
0.000402235
-0.000486041
0.00060745
-0.000292142
-0.000255061
0.000707726
-0.000164992
-1.81447e-05
4.38112e-05
-0.000377371
0.000336071
-0.000460231
-0.000277891
-2.81584e-05
-0.000184791
-0.000155777
-0.000124166
-0.00011697
-6.97359e-05
-9.26627e-05
-1.1394e-05
-3.39335e-05
-9.29268e-05
2.74019e-05
-9.02805e-05
-4.67716e-05
-2.25597e-05
-4.53274e-05
-1.40006e-05
-7.6702e-06
-1.32971e-05
-2.72296e-06
-9.63909e-06
-3.41956e-05
-2.38936e-05
-1.07869e-06
-8.57585e-06
-5.89519e-06
-1.87513e-06
-2.92763e-06
-9.3064e-07
-1.33656e-06
7.32429e-07
7.92599e-08
2.70312e-07
6.35408e-07
7.13292e-07
1.52423e-06
1.24587e-06
0.000470307
0.000274931
0.000407908
0.000131861
0.000194241
0.000455638
0.00053782
5.96876e-05
-8.38063e-05
-0.000599495
0.000315307
0.000452666
0.000112899
-0.000399668
0.000417042
-0.000354215
-0.00037323
-0.000467018
2.2297e-05
-0.00012416
-0.000306049
6.89567e-05
-0.000365001
-0.000253748
3.19044e-05
-0.000187681
7.69379e-05
-4.72339e-05
-0.000201104
-0.000162399
-6.55248e-05
-3.83485e-05
-6.77209e-05
-6.93313e-05
-5.9328e-05
-2.09673e-05
-1.23621e-05
-6.2755e-06
-2.22919e-05
-1.19038e-05
-2.03581e-05
-1.76181e-05
-1.59148e-05
-9.65454e-06
-1.38369e-06
2.54271e-06
-1.10382e-05
5.02181e-06
-8.43791e-06
-6.89695e-06
1.8771e-06
-4.02908e-06
1.10146e-06
-6.57326e-06
-2.80774e-06
-6.04135e-07
3.49571e-07
3.8093e-07
4.84435e-11
6.35359e-07
-1.01208e-06
3.32361e-07
2.78366e-07
1.57988e-06
8.61692e-07
0.00101848
0.000682838
-4.03626e-05
0.000326102
0.00028574
0.000213762
0.000241876
4.27879e-05
0.000495032
-0.000444267
-0.000559882
0.000827918
0.000515689
-0.000768231
0.000592806
-0.000284188
-0.00014014
-0.000286769
6.28262e-05
-0.00050228
9.37874e-05
-0.000444721
0.00037812
-0.000422692
5.89515e-05
-0.000296044
-0.000221844
-0.000110743
-0.000248338
-0.00012405
-0.000103873
-2.88111e-05
-7.82996e-05
-2.5196e-05
-3.89098e-05
-4.41353e-05
-3.89699e-05
-5.31998e-07
-1.09784e-05
-5.05255e-06
-2.85674e-05
-3.22619e-05
1.46404e-05
-3.35329e-05
-8.49551e-06
-3.41609e-06
-1.00097e-05
-3.23691e-07
-2.15198e-06
-5.4718e-06
3.49166e-06
1.8768e-06
-3.74393e-06
9.36193e-07
-5.64364e-06
1.36165e-06
-2.48094e-06
3.80977e-07
-3.7672e-07
1.49503e-06
6.10726e-07
7.1819e-07
1.25405e-06
9.33771e-07
0.000691582
0.000723201
8.42432e-05
0.000499502
0.000686143
5.07645e-05
0.00060267
0.000268036
-0.000252542
-0.000742739
0.000308618
-0.000434121
0.000785382
0.000649851
-0.000925522
0.000135924
-0.000306494
0.000519409
-0.000439454
-0.000425621
-0.000138227
-0.000271731
-0.000363741
-0.000411826
-3.14619e-06
9.94374e-06
-0.000292898
5.89614e-05
-0.000231787
-0.000169704
-6.15542e-05
-0.000186784
-5.08467e-05
-5.93848e-05
-7.32034e-05
-2.55738e-05
-0.000107111
-6.41058e-05
-4.36033e-05
-1.30414e-05
-3.95019e-05
-1.76215e-05
-1.60309e-05
1.51417e-06
-4.32078e-05
-1.47387e-05
-1.87942e-05
-4.60901e-06
-1.34258e-05
1.04977e-05
-1.08214e-05
-8.15331e-06
-1.98014e-06
-1.86713e-06
-4.70745e-06
3.31571e-06
-1.11929e-06
-1.11405e-06
-4.06904e-06
1.11831e-06
4.50423e-07
-2.65891e-07
8.76616e-07
-2.31645e-06
2.67767e-07
3.20281e-07
1.33807e-06
6.81006e-07
0.000607338
0.000807444
0.000246783
0.000248618
0.000250884
0.000470801
0.00043936
0.000653434
-0.000881343
0.00114938
-0.000594061
0.000490197
-0.000826272
0.000351261
-0.000275671
-0.000334991
-0.000170571
7.99547e-05
-0.000557019
0.000189384
0.000196765
-0.000615005
-0.000653279
0.000285288
4.80854e-05
-0.000414972
-0.000282954
-0.000172826
0.000111785
0.000132906
-0.00028149
-0.000194461
-0.000127399
-5.23526e-05
-0.000110232
-9.87772e-05
-9.80622e-05
-5.10644e-05
-9.04848e-06
-5.66446e-05
-5.71234e-05
-1.45167e-05
3.33389e-06
-3.85988e-05
-1.80726e-05
-2.34032e-05
-3.42371e-06
-2.92806e-06
-1.11829e-05
-2.6681e-06
-1.01335e-05
2.94975e-06
-5.18284e-06
-1.39174e-06
-8.13308e-06
1.20239e-06
3.55377e-06
-2.95073e-06
1.8453e-07
-1.43983e-06
1.4118e-06
5.88046e-07
6.57065e-07
1.10138e-06
0.000855959
0.000336643
0.000495401
-1.59685e-05
0.000721685
0.0012475
-0.000435966
0.000875326
-5.50703e-05
0.000555318
0.00099834
-0.000336075
-0.00064708
-0.000963096
0.000377607
0.00036106
-0.000505562
-0.000477064
0.000455364
-0.00026598
-0.00041824
-0.000367991
-0.000312974
-0.000300805
-0.000114167
-6.10405e-05
-0.000134071
-0.000148884
-9.55917e-05
-0.000148583
-7.50462e-05
-8.46547e-05
-0.000109806
3.08752e-05
-0.000162584
4.11024e-05
-0.000129652
-0.000139165
-6.01129e-05
-2.06177e-05
-2.27558e-05
-3.60269e-05
-5.29155e-06
-3.43676e-05
-3.33072e-05
-1.46489e-05
-2.68269e-05
3.56652e-07
9.40087e-06
-1.41109e-05
4.71004e-06
-1.2069e-05
-2.00038e-06
-1.42191e-05
-2.23309e-06
6.9154e-06
-9.52482e-06
-2.35138e-06
6.03035e-07
1.30218e-06
-1.22727e-06
-2.80341e-08
9.21912e-07
-7.14136e-07
-2.64848e-07
2.74194e-07
-3.7746e-07
8.27185e-07
8.33486e-07
4.21019e-07
0.0011926
0.000511369
0.000705717
0.000811529
0.000784599
1.21721e-05
9.07272e-05
0.000962412
0.000787726
-0.000842796
0.000662265
0.00128139
-0.000726077
0.00138467
0.000316016
-0.000585489
-0.000144502
-0.000351562
-0.000710381
-2.17002e-05
0.000236286
-0.000502266
-6.66787e-05
0.000342391
-0.000840393
0.000238648
-0.000374561
6.15869e-05
-0.000496064
-0.000205214
9.59386e-05
-0.000352815
-0.000195111
-0.000244475
5.20534e-05
3.93493e-05
-0.000210128
6.15451e-05
-0.000247165
-0.000159701
-0.000149155
-1.79166e-05
-0.000131709
-8.855e-05
-9.30633e-05
-4.61013e-05
-8.12635e-05
1.18857e-05
-8.07306e-05
-5.87827e-05
-3.96591e-05
-2.0553e-06
-3.36639e-05
-1.93589e-05
2.15011e-06
-2.64703e-05
-1.62195e-05
6.52388e-06
-9.14849e-06
-9.93556e-06
-2.60942e-06
-5.92084e-06
3.18217e-06
2.83609e-06
-5.53354e-06
7.49129e-08
4.12797e-06
-2.86413e-06
2.07775e-07
9.34461e-09
4.49723e-07
-6.50641e-07
-2.00918e-07
4.12465e-07
8.66516e-07
2.93779e-07
0.000162404
0.00106084
0.000131763
0.000499197
0.000543312
-9.44693e-05
0.00108823
-0.000150883
0.000796771
0.00105314
-0.000596948
-0.000180531
-0.00109731
0.000193167
0.000658598
-0.000712816
0.00102883
-0.00127784
0.000254905
-0.000977769
0.000462467
-0.000732081
-0.000226181
-0.000568944
-0.000498003
-0.000135913
-0.000434477
0.000354412
-0.000301152
-0.000256876
-0.000192422
-8.85865e-05
-0.000170779
-0.000185619
-1.13525e-05
-0.000141784
-0.000167072
-7.28648e-06
-0.000120356
-0.000104949
-0.000127365
-6.88449e-05
-5.67274e-05
-5.01949e-07
-4.17144e-05
-5.10047e-06
-2.85634e-05
-1.72088e-05
-5.95434e-06
3.80845e-06
-2.05159e-05
-6.2839e-06
-2.62461e-06
8.28259e-06
-1.2545e-05
-2.73868e-06
-2.69745e-06
2.04771e-06
-4.05306e-06
1.26384e-06
-4.84055e-06
-1.83994e-06
6.59985e-07
-2.75533e-06
2.11546e-07
5.72735e-07
7.68775e-07
0.00122324
0.00102798
0.000593666
0.000448843
0.000937345
0.000748504
-3.99777e-05
4.82674e-05
0.00102116
0.00143384
3.19784e-05
0.000500365
-0.000496495
0.00124222
0.00147075
-0.00104906
0.00130455
-0.000812148
0.000264954
-0.000249013
0.00122947
-0.000722865
-0.000269615
-0.000470235
0.00024482
-4.48556e-05
-0.000471001
-0.000524089
0.000343348
-0.000882839
-0.000841351
0.000245662
-0.000490325
-8.0065e-05
-0.000465285
-0.000212566
-0.000502539
0.000118499
-0.000281008
4.66735e-05
-0.000232293
0.000130089
7.48378e-05
-0.000300868
-0.000153137
5.02852e-05
-0.00024191
-0.000127643
-0.000103383
-4.38462e-05
-6.11027e-05
-0.000129566
-2.39816e-05
-6.8343e-05
3.92666e-05
-5.72294e-05
-4.68149e-05
-3.23719e-05
-9.74452e-06
1.31884e-05
-2.31632e-05
-9.97476e-06
-1.67075e-05
-1.94723e-05
7.16102e-06
-1.09072e-05
-4.26239e-06
2.1431e-06
-9.8997e-06
-2.00535e-06
-3.57671e-06
-3.4528e-06
9.15392e-07
1.66297e-06
-2.09535e-06
1.19184e-06
-1.45142e-06
-6.19105e-07
4.18492e-07
7.86036e-09
3.50282e-07
5.00091e-07
-3.41817e-08
-0.000913191
0.00101595
0.000207296
0.00108156
0.000633644
0.00136203
-0.000150191
0.000708526
0.00106943
-0.00047086
0.00146582
-0.000804188
0.000745728
0.000421691
0.000492405
-0.00096452
0.000980461
-0.00132195
0.000159975
-0.00083891
0.00020062
-0.000617112
-0.000225415
-0.000515857
-0.000400839
-5.88037e-05
-0.000539492
-0.000224239
-0.000244663
0.000354222
-0.00054535
-0.000331065
-0.00038404
-3.46732e-05
-0.000234335
-0.000102204
-0.000269008
-0.00022603
1.92296e-06
-0.000203422
-0.000114486
-0.000191624
-0.00014723
-0.000100369
-0.000153547
-2.90763e-05
-4.06656e-05
-3.70704e-05
-1.65638e-05
-4.21164e-05
-2.66822e-05
3.36423e-06
9.23451e-06
-2.28365e-05
-3.74618e-06
-1.34969e-05
-7.75661e-06
4.13043e-06
1.44746e-06
7.80247e-06
-7.70714e-06
-2.53741e-06
-4.32381e-07
-2.59582e-07
-2.00614e-07
3.58141e-07
-4.91626e-07
5.34272e-07
4.65546e-07
-1.59578e-07
0.00128885
0.000102756
0.000783835
0.00121184
-7.1966e-05
0.00117939
0.000598567
0.00161613
0.0013705
-0.000150316
0.00051776
-0.00062477
0.00144759
-0.000841226
0.00126292
-0.00162974
-0.000955184
0.0014865
-0.00012561
-0.000341488
-0.000678935
-0.000416492
0.000269562
-0.000529509
-0.000494977
-0.000115018
-0.000459643
-0.000760541
0.000144983
0.000529433
-0.000684474
-0.000753671
0.000113017
-0.000598885
-0.000471845
-0.000191128
-0.000296392
-1.80601e-06
-0.000425265
3.61395e-05
-0.000382234
-0.000371212
-0.000111544
-0.000201499
-0.000306111
-9.04187e-05
-5.68108e-05
-0.000106905
-2.33695e-05
-7.69998e-05
3.77874e-06
-4.66422e-05
-0.000121351
-6.97419e-05
4.60804e-05
-5.36342e-05
-1.69634e-05
-3.06241e-05
-2.3318e-05
-1.14923e-05
3.06604e-09
-1.3602e-05
-1.72431e-05
-3.62618e-06
3.46681e-06
-6.35502e-06
9.53375e-08
2.77737e-06
-6.00422e-06
-3.20975e-06
3.54659e-06
1.42314e-06
-3.80617e-06
8.49767e-07
-1.62376e-06
4.26448e-08
6.25124e-07
3.05504e-07
-4.56474e-09
0.00139161
0.000855801
-0.000130279
0.00131506
-6.33487e-05
0.00134212
0.00110742
0.0022147
0.00122018
-0.000968737
0.00100497
0.000606364
-0.000366826
0.00163294
0.000531312
0.00098683
-0.00100441
-0.00111244
0.00066292
-0.00132753
8.16061e-05
-0.000827018
-0.000259947
-0.000609994
1.22026e-05
-0.000485976
-0.000615559
-0.000155042
-0.000536312
-0.000640655
0.000289691
-0.00017362
0.000304447