/*--------------------------------*- C++ -*----------------------------------*\
| =========                 |                                                 |
| \\      /  F ield         | OpenFOAM: The Open Source CFD Toolbox           |
|  \\    /   O peration     | Version:  v1912                                 |
|   \\  /    A nd           | Website:  www.openfoam.com                      |
|    \\/     M anipulation  |                                                 |
\*---------------------------------------------------------------------------*/
FoamFile
{
    version     2.0;
    format      ascii;
    class       volVectorField;
    location    "10000";
    object      U;
}
// * * * * * * * * * * * * * * * * * * * * * * * * * * * * * * * * * * * * * //

dimensions      [0 1 -1 0 0 0 0];


internalField   nonuniform List<vector> 
71770
(
(0.185468 0.00833309 -2.04683e-23)
(0.191324 0.0064914 3.0499e-23)
(0.201716 0.00400824 -1.03812e-17)
(0.221611 0.00116787 -2.46762e-18)
(0.235012 0.000619037 1.10577e-18)
(0.236394 0.000511915 0)
(0.238601 0.000399417 0)
(0.240382 0.000269966 4.40164e-19)
(0.237727 0.000125074 -1.54098e-24)
(0.234159 -0.00189783 -3.17686e-18)
(0.262212 -0.00950687 1.2348e-17)
(0.317431 -0.0168479 8.79278e-18)
(0.182771 0.00979751 -2.17344e-17)
(0.185159 0.011513 -4.37274e-17)
(0.18276 0.0108354 2.1802e-17)
(17.8416 1.05412 1.37236e-16)
(16.1369 0.954037 5.94298e-21)
(1.08068 0.0671683 -1.75464e-22)
(1.66632 0.103542 -2.09277e-22)
(3.21024 0.199358 -1.58026e-16)
(2.36853 0.147134 1.31804e-16)
(0.592332 0.0368234 0)
(0.584746 0.0346658 -3.80532e-17)
(4.16929 0.247037 9.43368e-17)
(10.3174 0.610782 -3.31318e-16)
(8.44331 0.499975 3.03827e-16)
(12.3074 0.728348 3.3806e-16)
(6.78226 0.401708 -1.32504e-16)
(5.36277 0.317697 -1.12455e-16)
(14.2799 0.844718 -3.24664e-16)
(1.067 0.063251 -4.56607e-17)
(1.64553 0.0975367 1.09569e-16)
(2.33948 0.138655 0)
(3.17173 0.187957 -1.20402e-21)
(30.5555 -0.178627 0)
(22.078 1.18467 5.09517e-20)
(20.766 1.1145 0)
(21.0165 0.740249 2.65859e-20)
(22.3117 0.789971 0)
(23.5195 0.83747 4.54265e-20)
(24.6525 0.883333 8.5841e-17)
(22.6917 0.515387 0)
(23.8788 0.552557 2.08393e-20)
(24.9942 0.590169 4.0595e-17)
(25.6955 0.266393 0)
(21.4183 0.478167 5.13952e-17)
(25.7192 0.928117 -1.59684e-16)
(26.0478 0.628719 -3.78638e-17)
(26.7139 0.298906 -8.69378e-18)
(17.7917 0.955238 -1.35764e-16)
(16.0952 0.864201 1.48733e-16)
(19.343 1.03836 0)
(17.8608 0.810994 -1.33316e-16)
(19.4004 0.882095 1.21551e-16)
(19.6167 0.687629 2.90396e-20)
(20.8147 0.947727 -2.70139e-20)
(22.123 1.00879 1.02732e-16)
(23.3405 1.06608 -9.54148e-17)
(24.4783 1.12026 0)
(18.0905 0.631332 -1.29845e-16)
(20.0391 0.440365 -1.1252e-16)
(18.5297 0.401395 1.24005e-16)
(24.6178 0.237116 -1.01251e-17)
(23.4684 0.210622 1.09385e-17)
(22.23 0.186525 2.76537e-21)
(26.6409 0.0836267 1.96395e-18)
(8.43516 0.452658 -4.62512e-21)
(10.3043 0.553064 1.64822e-16)
(12.2867 0.659583 -1.67866e-16)
(12.3822 0.560115 -2.02314e-20)
(10.398 0.469852 0)
(14.249 0.765031 -3.92603e-20)
(14.3398 0.649445 1.94413e-20)
(14.5833 0.505037 9.3506e-21)
(29.0768 0.18013 0)
(29.6022 0.139822 0)
(30.0546 0.0957528 -1.43271e-18)
(30.3894 0.0377029 1.36976e-21)
(16.1764 0.733548 -1.79285e-20)
(16.416 0.570586 1.42819e-16)
(16.8655 0.360671 -6.83892e-17)
(28.4512 0.234864 -1.47672e-20)
(25.489 0.151147 4.64102e-21)
(24.3637 0.129853 0)
(26.5354 0.175521 0)
(25.0028 0.0946521 -2.15068e-21)
(26.1413 0.111075 -1.97089e-21)
(27.5191 0.203295 -3.62316e-21)
(28.1608 0.153446 3.61928e-21)
(27.1874 0.130554 3.62827e-21)
(27.7066 0.0989796 -1.95959e-21)
(28.6878 0.117581 0)
(28.1291 0.0642543 -2.51153e-21)
(29.1302 0.0782855 1.55525e-18)
(29.4395 0.0275271 4.14283e-21)
(7.02518 0.240677 0)
(13.0572 0.273316 -7.83508e-17)
(2.33893 0.125426 6.55155e-17)
(4.2196 0.190084 7.15456e-22)
(5.42334 0.244464 0)
(5.56727 0.190376 0)
(7.33564 0.150144 -6.28465e-17)
(9.08391 0.187119 -7.17015e-17)
(11.0282 0.228857 7.75678e-17)
(4.33634 0.14804 0)
(15.0331 0.31784 7.45047e-17)
(1.64529 0.0882193 -1.0923e-16)
(1.08208 0.0486495 -1.72318e-22)
(0.59321 0.0266612 -3.57255e-23)
(1.66814 0.0750294 0)
(2.37053 0.106671 0)
(3.21207 0.144614 5.97639e-22)
(1.11522 0.037896 1.27751e-22)
(1.71828 0.05844 -5.35479e-17)
(2.44021 0.0830811 6.42341e-17)
(3.30396 0.112631 -2.89998e-22)
(21.7847 0.0952712 -5.57531e-22)
(20.7836 0.0596515 -7.6983e-22)
(20.2742 0.0812974 6.5249e-18)
(19.0226 0.0511993 0)
(19.3031 0.0394792 0)
(18.5774 0.0690171 0)
(25.4702 0.0710974 -4.27744e-18)
(21.1099 0.0455926 6.59142e-22)
(22.3508 0.0693924 0)
(23.7481 0.0809026 -1.27213e-21)
(22.7267 0.0525882 0)
(24.1729 0.06092 2.33799e-18)
(11.7848 0.0734914 1.82963e-17)
(13.8732 0.0896027 -1.8431e-17)
(15.8837 0.106856 -1.01269e-21)
(14.5991 0.0481084 1.64551e-17)
(16.6784 0.0580453 -7.82763e-18)
(17.0571 0.0436159 0)
(14.9121 0.0366267 7.5539e-18)
(7.91697 0.0467109 1.49053e-17)
(9.75901 0.0590689 -1.69667e-17)
(4.54515 0.0920505 4.48918e-17)
(5.8254 0.118565 5.34638e-17)
(4.93961 0.0279591 7.71565e-23)
(6.31102 0.03642 -4.89326e-22)
(12.4281 0.0391526 -1.63307e-17)
(12.6775 0.0301763 -7.50477e-18)
(17.298 0.0338892 -3.30595e-18)
(17.7289 0.124975 4.01647e-21)
(15.1185 0.0286195 3.47041e-18)
(12.8505 0.0236628 -2.19193e-22)
(0.611657 0.0207682 3.57254e-23)
(0.644418 0.0128337 2.36927e-23)
(1.80751 0.0361895 -2.60854e-17)
(2.56439 0.0515132 -3.12898e-17)
(3.46798 0.0699299 4.37008e-22)
(1.17411 0.0234403 4.34831e-17)
(0.707042 0.00375536 7.40951e-24)
(2.80043 0.0153634 -7.43701e-18)
(1.36396 0.0036453 0)
(2.96797 0.00810298 3.33246e-18)
(2.09622 0.00565682 1.12121e-23)
(0.7497 0.00198784 -1.77092e-24)
(1.97751 0.0107143 -1.12123e-23)
(1.28651 0.00689601 5.16789e-18)
(3.77888 0.0210333 8.91467e-18)
(5.23194 0.0147334 -9.55799e-18)
(4.00393 0.0110857 -7.60917e-24)
(6.77744 0.0152431 -5.25392e-18)
(6.68108 0.0192037 1.0825e-22)
(8.37456 0.0246753 1.33417e-17)
(10.3102 0.0313072 -2.90634e-22)
(8.51198 0.0194141 9.04949e-24)
(10.4996 0.024396 6.98534e-18)
(6.85888 0.0119689 0)
(8.61993 0.0152518 -4.8469e-23)
(10.639 0.0191604 -9.49929e-23)
(2.11403 0.00462086 5.13611e-18)
(2.99658 0.00657903 -1.44603e-23)
(5.29783 0.0117914 -3.50772e-23)
(4.04797 0.00893957 -3.69212e-18)
(0.754728 0.00163805 1.78392e-18)
(1.37423 0.00299242 -4.28097e-18)
(1.38773 0.00233838 -3.93645e-24)
(0.761957 0.00127943 1.64035e-24)
(2.1354 0.00361276 0)
(5.35825 0.00925085 0)
(5.40812 0.0060921 1.40242e-23)
(6.92613 0.00783665 -1.66696e-23)
(3.02792 0.0051495 -5.25724e-24)
(4.09203 0.00700567 0)
(3.05363 0.00342817 -1.3265e-18)
(4.12831 0.00463944 0)
(2.15287 0.00241554 1.10594e-18)
(1.39871 0.00156897 -9.21807e-19)
(25.8251 0.0446281 1.99892e-18)
(24.4863 0.0380008 0)
(26.0127 0.0122195 0)
(21.3465 0.0285529 -6.5461e-22)
(21.4124 0.00858561 1.19596e-18)
(19.51 0.0248793 -1.65836e-22)
(22.9994 0.0327989 -2.7936e-22)
(23.1003 0.00928422 1.33541e-21)
(24.6285 0.0103658 1.95077e-21)
(27.0335 0.0532023 -1.83804e-18)
(27.2667 0.0153327 3.3271e-21)
(19.5482 0.00799156 8.68997e-22)
(17.4982 0.0073317 -1.40157e-18)
(10.653 -0.0813814 2.13612e-17)
(11.4595 -0.398077 0)
(15.1906 -0.113343 -4.08474e-21)
(12.8958 -0.0974053 2.26141e-17)
(13.7493 -0.473335 -1.32965e-21)
(15.2799 0.0182822 -2.02261e-22)
(8.70877 0.00992717 -4.19076e-23)
(10.7527 0.0123949 5.06305e-23)
(12.9893 0.0152135 0)
(17.4809 0.0215036 0)
(0.767816 0.000861644 7.68248e-19)
(10.729 0.00474804 -1.3893e-18)
(12.9772 0.0056509 0)
(15.2813 0.00654135 0)
(8.67703 0.00390782 1.23212e-18)
(6.891 0.00316666 1.6663e-23)
(8.60523 -0.066403 -1.9009e-17)
(5.37369 0.00252582 8.87274e-19)
(4.09742 0.00197096 -1.48385e-18)
(3.0279 0.00148937 6.19e-19)
(0.759779 0.000394555 3.58503e-19)
(1.38487 0.000708084 -4.30164e-19)
(2.13301 0.00107094 0)
(5.31591 -0.0417246 0)
(6.82509 -0.0531409 4.9018e-22)
(5.83446 -0.206795 5.32627e-17)
(9.32933 -0.326571 -7.34166e-17)
(7.44876 -0.262476 -4.39136e-21)
(2.98962 -0.0237859 -1.91484e-17)
(4.04916 -0.0320114 1.14747e-17)
(2.10451 -0.0168382 -2.37481e-23)
(0.748774 -0.00604545 5.54489e-18)
(1.36553 -0.0109795 -1.51715e-23)
(25.9896 -0.178303 1.42938e-17)
(24.566 -0.171588 -1.67167e-20)
(28.4784 -0.184899 -1.2266e-17)
(27.2908 -0.182909 -2.71086e-20)
(26.5124 -0.815025 5.15992e-17)
(27.037 -1.29811 9.55996e-21)
(21.3065 -0.153067 0)
(23.6258 -0.758101 -1.26073e-20)
(23.0096 -0.163118 -1.0329e-21)
(25.1271 -0.790236 -9.47557e-21)
(25.6206 -1.25077 1.23644e-20)
(21.9897 -0.718307 0)
(24.05 -1.1911 0)
(19.4396 -0.141443 -6.07893e-22)
(28.9751 -0.841546 -4.45552e-17)
(27.7929 -0.832315 -1.49294e-19)
(16.0453 -0.546582 -4.398e-21)
(13.1998 -0.683791 0)
(18.0727 -0.923699 4.36716e-21)
(15.6613 -0.80636 0)
(17.3965 -0.128181 -2.11846e-17)
(18.2128 -0.612902 -2.43627e-21)
(20.2989 -1.02842 4.72622e-21)
(20.1936 -0.670154 7.52304e-21)
(22.2878 -1.11748 -7.46809e-21)
(28.3298 -1.33425 0)
(29.5198 -1.35966 -3.86383e-20)
(30.6196 -1.37411 -3.04832e-17)
(29.5796 -1.39511 0)
(30.7557 -1.40307 0)
(28.2965 -1.3742 7.5135e-21)
(25.2981 -1.28908 -3.16189e-20)
(26.8804 -1.33934 -1.509e-17)
(31.6362 -1.37676 5.62608e-17)
(10.8557 -0.565192 5.20787e-17)
(16.6942 -0.906762 -9.27597e-22)
(21.4838 -1.1354 -2.00683e-17)
(19.1987 -1.02963 2.1652e-17)
(14.0973 -0.774222 2.19357e-17)
(11.5912 -0.64279 -2.00287e-17)
(23.5114 -1.22167 1.82319e-17)
(4.46544 -0.159088 -1.72524e-22)
(3.31034 -0.118468 1.21495e-22)
(0.836402 -0.03024 -2.15521e-17)
(1.52157 -0.0548515 -2.58595e-17)
(2.33824 -0.0840066 3.10235e-17)
(1.8315 -0.0969597 1.8413e-17)
(1.00965 -0.0535261 2.0366e-23)
(8.74232 -0.457058 -4.48839e-17)
(6.89665 -0.361814 4.02304e-22)
(5.30954 -0.279362 0)
(7.33531 -0.41344 -4.01023e-22)
(9.31891 -0.521237 1.79672e-22)
(3.95528 -0.208617 -1.21477e-22)
(2.80508 -0.148251 -2.2089e-17)
(5.63505 -0.319768 6.39018e-23)
(4.18975 -0.239171 1.03639e-17)
(6.77713 0.363623 1.32059e-16)
(8.52135 0.384692 0)
(5.35957 0.287522 -1.12102e-16)
(6.85263 0.309108 2.00819e-21)
(8.72182 0.299444 0)
(10.6219 0.365587 0)
(12.6209 0.435645 1.00002e-20)
(4.16738 0.223533 -7.15525e-22)
(3.17065 0.170048 -5.9766e-22)
(23.1378 0.111336 -5.36025e-18)
(19.3884 0.144069 0)
(20.8793 0.164462 0)
(28.404 0.0202493 8.09613e-22)
(29.5624 -0.183678 -5.64085e-21)
(30.0642 -0.841885 0)
(0.584743 0.0313478 0)
(1.06693 0.0572024 4.55194e-17)
(0.334453 -0.0194175 0)
(30.318 -2.07526 0)
(31.6058 -2.1077 0)
(28.8087 -2.01669 1.5539e-20)
(27.0121 -1.92666 -1.60812e-21)
(8.6933 -0.654814 -6.37293e-23)
(6.57361 -0.495831 0)
(4.71934 -0.356118 -6.05194e-18)
(3.11241 -0.234773 1.00946e-17)
(1.73018 -0.130389 -4.20788e-18)
(13.7411 -1.02871 -1.7809e-22)
(11.0868 -0.83305 0)
(19.5321 -1.44469 1.50861e-17)
(16.5994 -1.23633 0)
(22.3458 -1.6376 -1.54111e-17)
(24.8646 -1.80052 0)
(0.548408 -0.0412284 0)
(2.96653 -0.170225 -8.64531e-18)
(1.93425 -0.111491 1.85654e-23)
(1.06504 -0.0616221 -2.03651e-23)
(-1.56554 -1.16231 -6.95416e-17)
(-1.72625 -2.11329 -3.55925e-16)
(4.76296 0.0708569 0)
(-1.43944 -2.13054 6.61031e-16)
(-1.92743 -2.52635 1.06012e-16)
(15.1642 1.52138 5.4806e-16)
(2.44348 -0.65841 5.97965e-16)
(-0.441431 -1.55671 -2.95466e-16)
(-1.54421 -2.34815 0)
(-1.64641 -3.13582 -7.45372e-17)
(-1.86868 -2.61494 -7.38626e-17)
(28.3288 3.42495 -2.53626e-16)
(8.53586 1.05754 -1.48075e-15)
(-0.849064 -1.71734 0)
(-1.3189 -2.23455 0)
(-1.51996 -2.50226 1.37533e-16)
(-1.66939 -2.99199 1.77619e-16)
(-1.70056 -2.56507 7.53753e-17)
(-1.25578 -2.92021 -5.46318e-17)
(31.8489 4.19391 -2.55089e-16)
(24.1667 3.8763 7.16727e-17)
(5.28912 1.10343 4.36451e-17)
(-0.346081 -1.42292 4.18832e-16)
(-1.0426 -2.34865 -1.08785e-16)
(-1.12273 -2.46318 0)
(-1.50771 -2.84875 -7.80133e-17)
(-1.36833 -2.5197 -1.37611e-16)
(-1.18634 -2.74254 4.49844e-17)
(-1.06294 -2.63703 -2.45021e-17)
(33.2515 4.89837 2.05315e-16)
(24.9126 4.37229 2.33759e-16)
(2.30293 0.0253209 4.74999e-16)
(-0.699484 -1.89388 1.16096e-18)
(-0.853677 -2.24511 -6.52944e-16)
(-0.742659 -2.33762 2.76751e-16)
(-0.943476 -2.43705 0)
(-0.701806 -2.47864 0)
(-1.40102 -2.71838 -8.25868e-17)
(-1.32142 -2.61086 3.76782e-17)
(-1.04737 -2.45037 0)
(-1.22858 -2.66056 -4.5164e-17)
(-1.02049 -2.44733 4.17416e-17)
(-0.959629 -2.28141 -1.02814e-16)
(23.1042 3.17191 -4.36506e-17)
(1.7816 -0.420799 -5.01697e-16)
(-0.135372 -1.65029 1.95608e-17)
(-0.415522 -2.2954 -2.07883e-16)
(-0.661323 -2.42267 0)
(-0.149404 -2.39818 -2.68375e-16)
(-0.494634 -2.36993 0)
(-0.275326 -2.40191 0)
(-1.13893 -2.50444 -3.91894e-17)
(-0.734951 -2.33468 -1.32757e-16)
(-1.1509 -2.54994 4.03505e-17)
(-1.02081 -2.39435 0)
(-0.949285 -2.11168 5.38135e-17)
(-0.946568 -1.92407 -5.38172e-17)
(36.7083 5.69195 0)
(8.8387 0.719185 0)
(-0.329866 -1.79097 -1.25024e-16)
(-0.373843 -2.15145 0)
(0.111068 -2.34508 6.89692e-16)
(-0.00031454 -2.41306 0)
(0.237801 -2.3665 3.67932e-16)
(-0.16996 -2.24035 0)
(0.187613 -2.3359 0)
(-0.952759 -2.39496 -8.94346e-18)
(-0.76572 -2.33754 1.34883e-16)
(-0.323822 -2.23906 0)
(-1.05647 -2.42946 4.00821e-17)
(-0.909499 -2.17757 3.79539e-17)
(-0.912937 -2.06902 -2.09844e-17)
(-0.941186 -1.78739 2.69225e-17)
(-0.973942 -1.59926 2.54778e-17)
(36.4362 5.77123 -1.34665e-16)
(6.18705 -0.0322409 -1.45385e-16)
(1.12015 -0.873597 4.0846e-16)
(0.0127196 -2.17613 0)
(0.99596 -2.3368 -4.38968e-18)
(0.623789 -2.32125 1.42383e-16)
(1.45522 -2.29172 -1.32857e-16)
(0.267053 -2.16522 -1.18303e-16)
(0.64763 -2.32008 4.84758e-17)
(0.489724 -2.2053 1.21307e-16)
(-0.856998 -2.28663 5.18541e-17)
(-0.539182 -2.1797 0)
(-0.0642505 -2.10701 -3.7384e-17)
(-0.920496 -2.30049 -8.39966e-17)
(-0.834503 -2.15897 -1.82815e-19)
(-0.877652 -1.87757 1.09717e-16)
(-0.953863 -1.51025 0)
(-1.03049 -1.28566 0)
(23.9915 4.35484 -1.59235e-16)
(43.645 6.60204 0)
(7.96875 0.671648 -5.4075e-16)
(0.686767 -1.38192 4.48858e-16)
(0.7864 -2.33184 0)
(0.276111 -1.92655 -3.47509e-16)
(2.08609 -2.2753 -2.97394e-16)
(1.5858 -2.2569 -5.3989e-16)
(2.32789 -2.2466 1.67887e-16)
(0.596357 -2.01424 1.10198e-16)
(1.29428 -2.14126 -2.67336e-17)
(1.01116 -2.11284 6.10093e-17)
(-0.674798 -2.16327 0)
(-0.281345 -2.07568 0)
(0.391194 -1.98555 -8.8558e-17)
(-0.694278 -2.0685 -3.36351e-17)
(-0.795498 -1.75571 -6.99966e-17)
(-0.850515 -1.56682 0)
(-0.975659 -1.24076 0)
(-1.09737 -0.989692 -2.98957e-17)
(24.6303 4.44957 5.26198e-16)
(44.4338 7.13793 9.78557e-17)
(2.62943 -0.628751 -4.61154e-16)
(1.5054 -2.3336 0)
(0.870309 -2.21991 0)
(3.21738 -2.26503 0)
(2.39997 -2.08186 3.44127e-16)
(3.50104 -2.13047 -1.70283e-16)
(1.01928 -1.96265 0)
(2.01216 -2.05789 2.57322e-16)
(1.32459 -2.00641 -5.69831e-17)
(-0.107129 -1.92911 1.63442e-17)
(0.507283 -1.88284 -3.34654e-17)
(-0.630457 -1.93167 0)
(-0.711717 -1.76841 0)
(-0.819995 -1.41304 0)
(-0.984192 -1.14283 -4.90202e-17)
(-1.00991 -0.944412 -1.28766e-17)
(-1.07267 -0.827471 1.28858e-16)
(14.3775 2.99072 -3.88908e-16)
(36.8199 6.35988 -1.03299e-16)
(2.38465 -1.72588 1.29579e-15)
(2.55429 -2.29577 -2.58134e-16)
(1.30712 -2.39305 0)
(4.53894 -2.11975 1.45141e-16)
(3.33946 -2.27471 3.95838e-16)
(2.42855 -2.05329 -2.03966e-16)
(3.55291 -2.02154 0)
(3.94035 -2.01658 0)
(4.56327 -2.08967 0)
(1.33535 -1.79336 6.45328e-19)
(2.40847 -1.93915 -5.69088e-17)
(1.97724 -1.90028 0)
(-0.177601 -1.84629 -6.9882e-17)
(0.290387 -1.85855 1.75602e-17)
(1.00517 -1.74414 -3.45983e-17)
(-0.397468 -1.83048 7.19111e-17)
(-0.546936 -1.60954 -5.08866e-17)
(-0.671494 -1.3606 0)
(-0.876426 -1.08968 4.59558e-17)
(-1.00925 -0.77498 -9.54133e-17)
(-1.18934 -0.568055 0)
(19.9974 4.88855 1.69584e-16)
(4.51185 -0.0463716 -7.1827e-16)
(38.6672 6.62759 0)
(1.05185 -2.23239 0)
(3.5137 -2.26404 -2.2518e-16)
(2.77387 -2.35719 2.27627e-16)
(5.75632 -2.0345 -1.50192e-16)
(4.94289 -2.17429 1.30522e-16)
(3.43681 -1.94069 2.6902e-17)
(4.12205 -1.9308 0)
(5.40006 -1.90015 -1.75192e-16)
(5.81228 -1.94492 0)
(1.82269 -1.73442 5.0485e-17)
(3.17778 -1.84636 0)
(2.23215 -1.79115 0)
(0.0500591 -1.66709 -3.77124e-17)
(0.51828 -1.69872 3.83794e-17)
(0.972007 -1.64778 0)
(-0.357855 -1.65936 4.46685e-17)
(-0.521572 -1.44326 4.47263e-18)
(-0.731667 -1.14816 0)
(-0.825914 -0.801087 9.10273e-17)
(-1.06309 -0.518011 0)
(-1.172 -0.395114 0)
(32.5943 5.97141 0)
(12.7872 3.92833 0)
(2.94274 0.46847 0)
(1.39555 -1.62465 0)
(5.10734 -2.13969 0)
(3.33351 -2.07317 -3.29379e-16)
(6.01198 -2.05779 -2.51078e-16)
(7.24466 -1.87858 0)
(3.67954 -1.84699 -2.39193e-17)
(5.15213 -1.78737 -1.75536e-16)
(6.00676 -1.74742 2.97986e-16)
(7.23216 -1.8605 0)
(2.15063 -1.61555 2.50352e-17)
(3.4019 -1.69781 0)
(2.94559 -1.69687 0)
(-0.127986 -1.58052 0)
(0.336942 -1.61996 -3.12467e-17)
(1.22764 -1.52033 -5.50668e-17)
(-0.350597 -1.37771 4.38935e-17)
(-0.593079 -1.06031 0)
(-0.662945 -0.883673 -1.40838e-16)
(-0.848777 -0.621573 0)
(-1.04938 -0.352173 0)
(-1.22315 -0.222735 1.03121e-16)
(40.1039 7.48808 1.48239e-16)
(12.6778 3.12972 0)
(1.72042 -0.895334 -1.91872e-16)
(2.44356 -1.75942 5.05162e-17)
(6.46809 -2.10702 1.82682e-16)
(5.08054 -2.03525 3.6e-16)
(7.76582 -1.95701 1.34167e-16)
(8.6817 -1.84975 -2.48473e-16)
(4.49068 -1.70945 -1.26338e-16)
(5.29974 -1.67695 8.96949e-17)
(7.13274 -1.5744 -2.38878e-16)
(8.47182 -1.61202 6.80465e-17)
(2.94853 -1.59004 1.26587e-16)
(2.11581 -1.59058 2.90747e-17)
(4.1206 -1.5744 0)
(-0.11495 -1.46627 6.76485e-17)
(0.535998 -1.47834 0)
(0.98959 -1.43552 1.14334e-16)
(1.64946 -1.49773 5.7207e-19)
(-0.274247 -1.22471 3.18413e-17)
(-0.368152 -1.11609 -8.27376e-17)
(-0.414197 -0.84603 4.44916e-17)
(-0.664388 -0.621136 2.925e-19)
(-0.723521 -0.426211 1.49547e-16)
(-1.05245 -0.209008 -1.18099e-16)
(-1.16532 -0.120119 1.70851e-16)
(31.6915 6.64367 -1.17388e-16)
(7.08327 1.06319 0)
(2.61919 -0.328588 2.18692e-16)
(3.43196 -1.60205 2.97459e-16)
(8.33589 -1.91313 0)
(6.60861 -1.98303 -5.71238e-16)
(6.24678 -1.9875 0)
(10.611 -1.60899 1.03299e-16)
(4.61604 -1.54542 2.69961e-17)
(6.11877 -1.50174 0)
(7.6657 -1.50405 2.40683e-16)
(8.23769 -1.53458 1.69172e-16)
(10.3936 -1.52044 -6.81079e-17)
(3.53691 -1.47229 -1.06767e-16)
(2.47072 -1.44568 0)
(4.25675 -1.46351 0)
(0.056264 -1.39425 -8.52495e-17)
(0.412155 -1.40227 0)
(1.12275 -1.27695 -9.90575e-17)
(1.97685 -1.35568 -9.82485e-17)
(0.00831855 -1.26169 2.04592e-17)
(-0.217076 -0.987268 0)
(-0.393798 -0.7581 4.61969e-17)
(-0.574857 -0.531186 -1.36718e-16)
(-0.689821 -0.33579 5.58678e-17)
(-1.0375 -0.0982559 -1.22271e-16)
(-1.23943 0.0121363 0)
(33.526 7.12449 -1.95824e-16)
(7.25108 1.05666 4.83562e-16)
(2.92254 -0.965842 2.59042e-16)
(5.25124 -1.76815 3.10539e-17)
(10.2962 -1.73178 0)
(8.91456 -1.72814 3.55362e-16)
(8.57223 -1.93596 2.63999e-16)
(11.8697 -1.54302 1.35116e-17)
(11.5559 -1.52643 0)
(5.45281 -1.40833 0)
(6.04834 -1.45758 9.39242e-17)
(7.15823 -1.44078 -1.74454e-16)
(8.98676 -1.39408 2.04666e-17)
(9.50876 -1.39443 0)
(11.2592 -1.35 0)
(3.58973 -1.39762 -1.06835e-16)
(3.07369 -1.34597 0)
(5.12084 -1.34729 0)
(0.522936 -1.28173 0)
(1.41656 -1.23042 -1.61186e-19)
(0.758498 -1.19852 0)
(1.92221 -1.30383 9.58849e-17)
(0.205475 -1.20393 0)
(0.112595 -1.03676 0)
(-0.134552 -0.729052 1.19399e-16)
(-0.234818 -0.588966 -1.15232e-16)
(-0.417692 -0.343852 -9.72593e-17)
(-0.628126 -0.17141 0)
(-1.08983 0.0214792 0)
(-1.25956 0.116786 -7.65448e-17)
(22.1725 4.9028 -2.44839e-16)
(43.094 8.3428 7.35889e-17)
(4.48212 -0.776209 0)
(3.92105 -1.34607 -1.28287e-16)
(6.64578 -1.74015 0)
(10.9895 -1.54974 -3.25162e-16)
(11.1258 -1.90387 1.52054e-16)
(14.3198 -1.41778 -3.07992e-16)
(14.1459 -1.26756 -3.90998e-16)
(6.90963 -1.35251 -1.03416e-16)
(7.70361 -1.26479 0)
(9.50675 -1.28477 0)
(10.4868 -1.39993 0)
(12.7453 -1.16427 0)
(4.5528 -1.28433 2.46446e-18)
(3.14182 -1.25858 -1.24829e-16)
(5.26055 -1.32805 1.00548e-16)
(1.41917 -1.09102 0)
(0.907804 -1.0477 0)
(2.3581 -1.21459 -3.14436e-17)
(0.251702 -0.948575 0)
(0.122179 -0.795523 -8.91331e-17)
(-0.00136131 -0.553564 6.49857e-17)
(-0.383766 -0.278296 0)
(-0.0146695 -0.467488 2.28537e-17)
(-0.58664 -0.13601 -5.61543e-17)
(-0.8197 -0.0378225 -3.10194e-19)
(-1.06212 0.125902 -1.35757e-19)
(-1.20014 0.193589 0)
(21.0036 5.18787 -1.35048e-16)
(44.3224 8.59167 0)
(5.00143 -0.447516 2.16783e-16)
(5.45727 -1.6748 -8.58282e-17)
(10.0473 -1.78948 0)
(13.7512 -1.59149 2.79157e-16)
(14.3435 -1.43557 -3.33116e-16)
(15.7909 -1.21855 3.35328e-16)
(16.0094 -1.37232 1.7677e-16)
(14.944 -1.19223 0)
(7.20017 -1.29637 -2.2302e-16)
(8.61082 -1.18628 0)
(9.21841 -1.26727 0)
(10.8472 -1.18989 -2.03986e-17)
(11.5116 -1.29915 0)
(14.0074 -1.20855 -1.44601e-16)
(12.622 -1.20134 0)
(4.87828 -1.1603 0)
(3.54903 -1.10723 5.40876e-17)
(6.46837 -1.227 1.69305e-16)
(1.72004 -1.06099 1.27193e-16)
(0.750484 -0.972646 0)
(2.33193 -1.14595 -3.31685e-17)
(0.417245 -0.770168 6.58152e-17)
(0.424639 -0.667019 1.07775e-16)
(0.0188086 -0.332917 0)
(0.319811 -0.476319 0)
(-0.295599 -0.140556 0)
(-0.672865 -0.0180917 6.5654e-17)
(-0.772995 0.052386 5.95202e-17)
(-1.03664 0.187304 0)
(-1.18328 0.23551 -3.62305e-17)
(34.9216 7.59314 5.32291e-17)
(10.1641 2.37495 -1.37588e-16)
(46.3859 8.7073 2.57766e-17)
(5.45275 -1.2699 -2.87747e-16)
(6.56157 -1.65437 0)
(11.4947 -1.75446 0)
(15.4008 -1.48401 -3.61984e-16)
(18.0874 -1.18455 0)
(18.5144 -1.00194 0)
(18.614 -1.14562 1.49849e-16)
(17.3292 -0.951522 2.58618e-16)
(8.37528 -1.21034 2.30769e-17)
(10.3546 -1.20959 -4.68088e-17)
(11.5514 -1.22996 0)
(11.1124 -1.21361 -6.88466e-17)
(15.8836 -1.05102 4.31473e-16)
(13.727 -1.11518 0)
(6.11687 -1.13982 2.16614e-16)
(4.67217 -1.14866 -5.72943e-17)
(4.04198 -1.04275 5.58401e-17)
(3.05612 -0.962775 -1.17986e-16)
(6.65416 -1.13657 -1.67907e-16)
(1.80974 -0.942776 -6.47163e-17)
(0.835817 -0.871807 -7.86419e-17)
(2.67283 -1.03417 6.09285e-17)
(0.754964 -0.646276 -8.33349e-17)
(0.167651 -0.300948 0)
(0.327582 -0.429024 0)
(0.71785 -0.574068 -8.88297e-17)
(0.0448561 -0.225391 0)
(-0.405476 -0.0688471 6.11494e-17)
(-0.502994 0.0404117 5.63836e-17)
(-0.723648 0.142544 -1.20744e-16)
(-1.16187 0.255679 8.48937e-20)
(32.0333 6.96387 0)
(15.4934 3.66973 0)
(47.0081 8.71359 -1.61057e-17)
(6.71266 -1.3652 3.14567e-16)
(9.37986 -1.7092 0)
(16.5189 -1.11682 0)
(19.3144 -1.22611 3.91123e-16)
(22.2292 -0.879975 0)
(18.8155 -0.734589 0)
(20.0681 -0.926694 0)
(19.8491 -0.863849 0)
(20.5325 -1.01751 1.44478e-16)
(19.1204 -0.951236 -2.28683e-16)
(17.492 -0.927975 0)
(8.86082 -1.15233 -1.29358e-16)
(10.2438 -1.09571 9.86223e-17)
(13.0219 -1.15274 -8.78594e-17)
(12.3488 -1.12244 1.15308e-16)
(15.4054 -1.10791 -4.3439e-16)
(6.44161 -1.05644 1.26815e-17)
(5.04416 -1.06657 1.92932e-16)
(4.35182 -0.948546 6.18762e-17)
(3.39142 -0.838143 6.2091e-17)
(7.92728 -1.03905 0)
(2.24152 -0.920187 -1.32551e-16)
(1.32002 -0.821299 2.19763e-18)
(1.29175 -0.74191 -2.24834e-18)
(0.655739 -0.394777 8.73568e-17)
(0.677363 -0.451464 0)
(0.951589 -0.537247 8.79927e-17)
(0.269794 -0.193567 0)
(-0.263776 -0.0454122 -1.12453e-16)
(-0.48402 0.0597435 1.17879e-16)
(-0.466577 0.14093 7.61395e-17)
(-0.974366 0.270122 0)
(-1.13747 0.310205 -7.48821e-17)
(36.8388 7.51355 7.07252e-17)
(11.6312 2.50113 -1.10716e-16)
(45.0772 8.64297 6.72972e-17)
(6.68553 -0.591829 -2.27409e-17)
(10.7888 -1.29333 -9.60871e-17)
(11.8886 -1.27822 0)
(16.8799 -0.816771 0)
(22.3096 -0.93671 -3.52206e-16)
(25.8106 -0.457508 0)
(23.9932 -0.42263 0)
(22.7309 -0.844719 0)
(22.8838 -0.632034 0)
(23.8122 -0.568847 -1.13919e-16)
(21.3949 -0.816145 -2.34754e-16)
(19.5591 -0.771292 0)
(8.70165 -1.12713 8.78452e-17)
(10.9784 -1.04421 4.70732e-17)
(13.4316 -1.14728 7.7846e-17)
(12.2794 -0.991346 -6.96611e-17)
(16.348 -1.05008 1.41133e-16)
(7.71872 -0.94541 -1.20339e-17)
(5.82736 -0.964701 -9.4074e-17)
(4.21334 -0.907254 -5.97074e-17)
(3.27309 -0.810238 6.86752e-17)
(2.42724 -0.751649 1.26801e-16)
(1.62466 -0.664608 0)
(0.977705 -0.361902 -1.62245e-16)
(1.31753 -0.563547 0)
(0.57922 -0.236297 -4.59492e-17)
(0.0292733 -0.0898844 0)
(-0.0429422 0.0266842 0)
(-0.509989 0.167428 1.02534e-16)
(-0.0502182 0.0415967 -1.07672e-16)
(-0.956299 0.267242 0)
(-0.992567 0.301383 7.96445e-17)
(-1.16486 0.354177 0)
(33.1915 7.07121 -3.24635e-16)
(21.8195 5.03869 0)
(8.04953 1.34763 1.28737e-16)
(46.3222 8.91907 -6.78325e-17)
(10.9973 -0.748945 1.63997e-17)
(13.6408 -0.979957 5.37852e-17)
(20.6585 -0.887049 0)
(25.4604 -0.382675 2.37059e-16)
(28.9808 -0.0466579 0)
(26.2239 -0.2148 0)
(24.8951 -0.490363 2.52992e-16)
(24.2255 -0.691647 -2.27147e-17)
(23.7119 -0.563256 4.32389e-16)
(21.4367 -0.746733 0)
(19.5091 -0.907793 -1.33157e-16)
(9.79958 -1.01945 0)
(10.7601 -0.987497 0)
(14.9079 -1.04698 0)
(13.4351 -0.911643 0)
(17.8777 -0.832174 1.4576e-16)
(8.07299 -0.866303 0)
(5.97737 -0.832652 3.39503e-16)
(4.56408 -0.823456 -1.29857e-16)
(3.65272 -0.737881 -8.04205e-17)
(2.78613 -0.739918 0)
(2.04661 -0.636655 1.00746e-18)
(1.48032 -0.468615 7.58199e-17)
(0.944267 -0.346968 1.03998e-17)
(0.769877 -0.171145 5.60882e-17)
(0.201512 -0.0511986 0)
(-0.313105 0.143105 -1.11359e-16)
(0.229688 0.050266 -1.6722e-20)
(-0.56118 0.202773 0)
(-0.679171 0.258633 -7.17729e-17)
(-0.937531 0.337747 0)
(-1.03543 0.357075 3.78855e-17)
(40.7545 8.58202 8.71351e-17)
(19.6485 4.35779 0)
(8.87313 1.26171 -3.23813e-17)
(45.653 8.66141 -4.37938e-16)
(11.5851 -0.706516 -1.26828e-16)
(18.1224 -0.6949 -2.01386e-17)
(25.0437 -0.331452 0)
(20.7955 -0.719945 0)
(29.0728 -0.139054 9.81711e-17)
(31.9105 0.451547 1.32128e-16)
(30.3611 0.0307946 -1.1863e-17)
(31.1114 0.352938 0)
(27.768 -0.114858 1.79272e-17)
(27.2879 -0.263138 1.87841e-17)
(25.9077 -0.320752 -1.94159e-16)
(23.7821 -0.465201 0)
(20.6254 -0.732711 0)
(9.93563 -0.909548 2.33695e-17)
(11.7485 -0.914455 5.51484e-17)
(15.2288 -0.913347 0)
(13.2126 -0.941296 -8.96677e-17)
(18.8495 -0.713564 0)
(7.91393 -0.948041 4.89737e-17)
(9.41531 -0.772523 -4.76783e-17)
(5.36287 -0.793574 -2.23931e-16)
(7.27737 -0.78313 -9.61759e-17)
(4.11854 -0.72468 1.46337e-16)
(3.30829 -0.641231 3.17863e-17)
(2.92381 -0.636718 1.00669e-16)
(2.43587 -0.535088 -1.43904e-16)
(1.89841 -0.442017 -1.47805e-16)
(1.28589 -0.299554 0)
(0.546492 -0.0739976 0)
(1.02522 -0.197897 3.31474e-17)
(-0.0335592 0.118208 5.67992e-17)
(0.620113 0.0162657 0)
(-0.454532 0.215163 -1.59569e-17)
(-0.616994 0.268222 1.32161e-16)
(-0.856659 0.340026 -3.41239e-17)
(-1.02959 0.381749 4.35333e-17)
(33.3809 7.60493 1.08019e-16)
(13.4145 2.32068 -1.42e-16)
(9.77388 0.178691 -4.49127e-17)
(45.9477 8.6016 4.03831e-16)
(17.4563 -0.368596 6.41459e-17)
(21.7398 -0.15421 1.51596e-17)
(28.0516 0.277874 8.05762e-17)
(25.6668 0.0142899 0)
(30.9293 0.00421769 -1.11389e-16)
(34.6972 0.757811 -3.4242e-16)
(33.8131 0.437788 2.0807e-16)
(33.9796 0.616587 0)
(30.0246 -0.15622 -2.73294e-16)
(28.7453 0.0311188 -3.98646e-17)
(28.0911 -0.305733 1.88496e-16)
(25.7966 -0.396706 0)
(23.8244 -0.342486 -3.9182e-16)
(22.3213 -0.494354 2.54568e-16)
(11.363 -0.851339 2.28386e-17)
(16.759 -0.72486 -7.40973e-17)
(14.4099 -0.779995 1.64395e-16)
(18.7299 -0.799244 2.78653e-16)
(9.30816 -0.828306 7.66424e-20)
(5.49962 -0.709836 -3.11628e-16)
(7.22228 -0.740287 0)
(4.28974 -0.654772 -6.68174e-17)
(3.67767 -0.564151 6.67056e-17)
(2.41646 -0.520897 1.38194e-16)
(2.05619 -0.37716 -9.45158e-18)
(1.78605 -0.309252 0)
(0.883483 -0.0517884 0)
(1.25143 -0.146371 -5.44252e-17)
(0.200066 0.109698 -5.48429e-17)
(0.623689 0.0354987 5.10353e-17)
(0.889246 -0.0640823 0)
(-0.00850533 0.160439 1.44579e-17)
(-0.306157 0.249431 -5.82407e-17)
(-0.538611 0.296664 1.00825e-16)
(-0.791864 0.363906 1.633e-20)
(-0.932246 0.376624 -8.32061e-17)
(34.1493 7.59676 1.56317e-16)
(11.7938 2.10912 3.6727e-16)
(11.747 0.182301 4.77653e-16)
(46.6303 8.88336 -1.37625e-16)
(16.6099 -0.130349 -1.90338e-17)
(21.7555 0.309585 4.12281e-17)
(26.3787 0.283811 0)
(32.1913 0.594249 -2.03355e-16)
(34.1742 0.561331 -2.30932e-16)
(37.4738 1.03141 1.68821e-16)
(35.4877 0.661729 2.08563e-16)
(37.2408 1.00091 0)
(32.6374 0.17737 -9.60181e-17)
(32.0232 0.361815 3.77622e-17)
(30.5534 -0.113025 -2.11061e-16)
(27.7928 -0.181301 2.47383e-16)
(25.5814 -0.20621 1.5496e-16)
(22.9661 -0.498791 0)
(11.8505 -0.762076 0)
(17.0536 -0.701203 -1.75636e-16)
(16.0443 -0.699261 5.57769e-18)
(13.5822 -0.738107 -1.94077e-16)
(20.1335 -0.675643 2.77127e-18)
(9.76652 -0.713023 2.26998e-17)
(6.38074 -0.69 6.49819e-17)
(4.8898 -0.649002 2.89507e-16)
(8.03033 -0.660373 1.51652e-17)
(3.52597 -0.535068 -1.87246e-16)
(2.88239 -0.490516 4.02018e-17)
(2.64466 -0.41632 -1.81886e-16)
(2.00322 -0.287514 0)
(1.74902 -0.218452 4.17352e-17)
(0.946181 0.0186035 9.69136e-17)
(1.52333 -0.115766 0)
(0.0872854 0.170216 5.76992e-17)
(-0.281525 0.243944 -6.73171e-17)
(-0.355212 0.288145 -3.74119e-17)
(-0.464981 0.315197 -1.4033e-16)
(-0.66059 0.332873 1.43832e-16)
(-0.79239 0.345853 -3.50572e-17)
(41.6077 8.70679 -1.67516e-16)
(23.4629 5.38458 -1.36286e-16)
(11.1982 0.370801 -3.11648e-16)
(19.9902 0.238287 -4.45196e-17)
(29.0797 0.749688 -9.28166e-17)
(30.5442 0.469983 4.48569e-17)
(35.4241 1.01179 1.10614e-16)
(35.0047 0.635453 1.26794e-16)
(38.4935 1.10952 0)
(39.6796 1.20357 -1.39424e-16)
(38.5396 0.981286 2.06714e-16)
(40.4718 1.59347 0)
(33.3096 0.297383 -3.40866e-17)
(32.9586 0.305759 0)
(30.2016 -0.0451377 -9.82227e-17)
(27.2951 -0.0440888 1.43001e-16)
(24.8766 -0.357032 0)
(21.9236 -0.547081 0)
(11.3472 -0.698953 -1.23933e-16)
(18.941 -0.642868 -8.51606e-17)
(17.2714 -0.565757 -1.653e-16)
(13.8372 -0.712428 -8.98352e-17)
(9.76182 -0.72999 -2.34548e-17)
(6.50358 -0.605043 0)
(5.07155 -0.571886 0)
(9.13816 -0.675688 -6.12506e-17)
(7.47706 -0.604204 0)
(3.89604 -0.489972 2.14657e-16)
(2.92241 -0.400709 1.47414e-16)
(2.6286 -0.333375 0)
(1.93523 -0.197751 -1.54077e-21)
(1.50155 -0.0516111 -1.75553e-16)
(0.937163 0.0446405 -2.79353e-16)
(0.524305 0.122256 1.5394e-16)
(0.113484 0.213415 0)
(0.0160366 0.239783 3.05672e-17)
(-0.187229 0.282307 1.04564e-16)
(-0.205833 0.265251 -1.50594e-16)
(-0.616356 0.331645 0)
(-0.834911 0.347175 0)
(41.8779 8.55579 2.45189e-16)
(22.584 5.31043 0)
(11.4919 0.96432 5.43177e-16)
(16.031 0.356448 2.37323e-16)
(27.362 1.07401 3.45826e-17)
(30.9482 1.05142 7.73927e-18)
(32.5756 0.883597 7.07359e-17)
(34.8086 0.987821 -7.8665e-18)
(40.2995 1.71795 -2.1982e-16)
(37.1088 0.913216 0)
(41.3426 1.35916 0)
(42.2646 1.56283 -4.50647e-17)
(40.1002 1.17076 -3.75199e-16)
(42.8079 2.03725 0)
(36.5319 0.68126 0)
(34.6215 0.621406 0)
(31.8213 0.121577 3.86143e-17)
(29.2529 0.148988 -2.30206e-16)