/*--------------------------------*- C++ -*----------------------------------*\
| =========                 |                                                 |
| \\      /  F ield         | OpenFOAM: The Open Source CFD Toolbox           |
|  \\    /   O peration     | Version:  v1912                                 |
|   \\  /    A nd           | Website:  www.openfoam.com                      |
|    \\/     M anipulation  |                                                 |
\*---------------------------------------------------------------------------*/
FoamFile
{
    version     2.0;
    format      ascii;
    class       volScalarField;
    location    "10000";
    object      k;
}
// * * * * * * * * * * * * * * * * * * * * * * * * * * * * * * * * * * * * * //

dimensions      [0 2 -2 0 0 0 0];


internalField   nonuniform List<scalar> 
2500
(
0.00123015
0.00133332
0.00156459
0.00191719
0.00237196
0.00290563
0.00349531
0.00412095
0.00476618
0.00541856
0.00606931
0.00671278
0.00734575
0.00796671
0.00857526
0.00917159
0.00975622
0.0103297
0.0108927
0.0114458
0.0119893
0.0125237
0.0130494
0.0135664
0.0140749
0.0145752
0.0150671
0.0155507
0.0160259
0.0164925
0.0169505
0.0173995
0.0178393
0.0182694
0.0186894
0.0190987
0.0194966
0.0198824
0.0202548
0.0206129
0.0209551
0.0212798
0.0215849
0.0218678
0.0221258
0.0223553
0.0225519
0.0227106
0.0228248
0.0228869
0.00133332
0.00118176
0.00120508
0.00134945
0.00158032
0.00187164
0.0022027
0.0025572
0.0029228
0.00329074
0.00365521
0.00401282
0.00436186
0.00470179
0.00503272
0.00535513
0.00566962
0.00597681
0.0062773
0.00657161
0.00686019
0.00714342
0.00742164
0.00769509
0.00796401
0.00822855
0.00848886
0.00874501
0.00899706
0.00924501
0.00948885
0.00972848
0.0099638
0.0101946
0.0104207
0.0106418
0.0108575
0.0110673
0.0112706
0.0114668
0.0116549
0.011834
0.0120029
0.01216
0.0123037
0.0124319
0.0125419
0.0126309
0.0126951
0.01273
0.00156459
0.00120508
0.00108559
0.00111913
0.00125452
0.00145897
0.00170928
0.00198811
0.00228248
0.00258313
0.00288394
0.00318121
0.00347304
0.00375867
0.00403807
0.00431153
0.00457953
0.00484256
0.00510113
0.00535568
0.00560659
0.00585421
0.00609882
0.00634068
0.00657997
0.00681687
0.0070515
0.00728394
0.00751425
0.00774243
0.00796844
0.00819219
0.00841355
0.00863231
0.00884819
0.00906085
0.00926982
0.00947456
0.00967439
0.00986847
0.0100558
0.0102353
0.0104055
0.0105647
0.010711
0.010842
0.0109549
0.0110465
0.0111127
0.0111488
0.00191719
0.00134945
0.00111913
0.00109763
0.00121253
0.00141963
0.00168874
0.00199751
0.00232921
0.00267189
0.00301759
0.00336141
0.00370072
0.0040343
0.00436184
0.00468349
0.00499964
0.00531074
0.00561727
0.00591969
0.00621838
0.00651371
0.00680599
0.00709548
0.0073824
0.00766693
0.00794921
0.00822934
0.00850736
0.00878327
0.00905701
0.00932846
0.00959745
0.00986368
0.0101268
0.0103864
0.0106419
0.0108924
0.0111373
0.0113754
0.0116055
0.0118261
0.0120355
0.0122315
0.0124116
0.0125731
0.0127124
0.0128253
0.012907
0.0129514
0.00237196
0.00158032
0.00125452
0.00121253
0.00135504
0.0016207
0.00196647
0.00236067
0.00278062
0.00321097
0.00364205
0.00406826
0.00448672
0.00489627
0.00529676
0.00568854
0.00607221
0.00644846
0.00681796
0.00718135
0.00753919
0.007892
0.00824022
0.00858422
0.00892435
0.00926086
0.00959399
0.00992388
0.0102506
0.0105743
0.0108949
0.0112122
0.0115262
0.0118365
0.0121427
0.0124444
0.0127409
0.0130314
0.0133149
0.0135902
0.0138561
0.0141106
0.014352
0.0145778
0.0147851
0.0149708
0.0151309
0.0152606
0.0153544
0.0154054
0.00290563
0.00187164
0.00145897
0.00141963
0.0016207
0.0019762
0.00242344
0.00291854
0.00343325
0.00395067
0.00446135
0.0049605
0.00544617
0.00591801
0.00637654
0.0068227
0.00725755
0.00768219
0.00809763
0.00850478
0.00890446
0.00929737
0.00968414
0.0100653
0.0104413
0.0108126
0.0111794
0.0115421
0.0119007
0.0122553
0.0126061
0.012953
0.0132957
0.013634
0.0139676
0.0142958
0.0146182
0.0149338
0.0152415
0.0155403
0.0158284
0.0161042
0.0163656
0.0166099
0.0168342
0.017035
0.017208
0.0173482
0.0174495
0.0175047
0.00349531
0.0022027
0.00170928
0.00168874
0.00196647
0.00242344
0.00297263
0.00355884
0.00415176
0.00473602
0.00530444
0.00585426
0.00638502
0.0068975
0.00739304
0.0078732
0.00833953
0.00879348
0.00923637
0.00966937
0.0100935
0.0105097
0.0109186
0.011321
0.0117175
0.0121085
0.0124943
0.0128755
0.0132521
0.0136243
0.0139923
0.0143559
0.0147151
0.0150695
0.0154189
0.0157628
0.0161003
0.0164307
0.0167529
0.0170657
0.0173674
0.0176561
0.0179297
0.0181854
0.0184203
0.0186305
0.0188116
0.0189583
0.0190644
0.0191221
0.00412095
0.0025572
0.00198811
0.00199751
0.00236067
0.00291854
0.00355884
0.00421896
0.00487033
0.00550135
0.00610811
0.00669014
0.00724856
0.0077852
0.00830212
0.00880137
0.0092849
0.00975445
0.0102116
0.0106577
0.0110939
0.0115214
0.0119409
0.0123532
0.0127591
0.0131591
0.0135537
0.0139433
0.0143281
0.0147084
0.0150844
0.0154559
0.015823
0.0161854
0.0165427
0.0168945
0.01724
0.0175784
0.0179086
0.0182292
0.0185386
0.0188349
0.0191157
0.0193784
0.0196197
0.0198357
0.0200219
0.0201728
0.0202819
0.0203412
0.00476618
0.0029228
0.00228248
0.00232921
0.00278062
0.00343325
0.00415176
0.00487033
0.0055647
0.00622803
0.00685981
0.00746178
0.00803646
0.00858656
0.0091147
0.00962334
0.0101147
0.0105908
0.0110534
0.011504
0.0119439
0.0123742
0.0127961
0.0132104
0.0136179
0.0140192
0.0144149
0.0148054
0.0151913
0.0155726
0.0159497
0.0163225
0.0166911
0.0170552
0.0174145
0.0177686
0.0181167
0.0184579
0.0187912
0.0191151
0.019428
0.019728
0.0200125
0.0202789
0.0205237
0.0207431
0.0209322
0.0210856
0.0211965
0.0212569
0.00541856
0.00329074
0.00258313
0.00267189
0.00321097
0.00395067
0.00473602
0.00550135
0.00622803
0.00691413
0.00756242
0.00817665
0.00876053
0.00931747
0.00985055
0.0103625
0.0108559
0.0113327
0.0117949
0.0122442
0.012682
0.0131096
0.0135281
0.0139386
0.0143419
0.0147387
0.0151298
0.0155156
0.0158968
0.0162736
0.0166463
0.0170151
0.01738
0.0177408
0.0180972
0.0184489
0.0187951
0.019135
0.0194674
0.019791
0.0201041
0.0204045
0.0206899
0.0209574
0.0212035
0.0214242
0.0216147
0.0217692
0.0218811
0.021942
0.00606931
0.00365521
0.00288394
0.00301759
0.00364205
0.00446135
0.00530444
0.00610811
0.00685981
0.00756242
0.00822179
0.00884348
0.00943223
0.00999202
0.0105263
0.011038
0.0115296
0.0120036
0.0124618
0.0129061
0.0133381
0.013759
0.0141702
0.0145727
0.0149675
0.0153556
0.0157376
0.0161144
0.0164864
0.0168541
0.017218
0.0175783
0.017935
0.0182882
0.0186377
0.0189829
0.0193234
0.0196583
0.0199864
0.0203064
0.0206166
0.0209148
0.0211985
0.0214649
0.0217103
0.0219307
0.0221211
0.0222757
0.0223877
0.0224487
0.00671278
0.00401282
0.00318121
0.00336141
0.00406826
0.0049605
0.00585426
0.00669014
0.00746178
0.00817665
0.00884348
0.00946952
0.0100604
0.0106207
0.0111539
0.0116632
0.0121512
0.0126202
0.0130724
0.0135094
0.0139331
0.0143449
0.014746
0.0151377
0.0155212
0.0158973
0.016267
0.0166312
0.0169905
0.0173455
0.0176969
0.0180448
0.0183897
0.0187315
0.0190702
0.0194054
0.0197366
0.0200631
0.0203837
0.0206971
0.0210016
0.021295
0.0215748
0.021838
0.0220809
0.0222994
0.0224885
0.0226422
0.0227536
0.0228144
0.00734575
0.00436186
0.00347304
0.00370072
0.00448672
0.00544617
0.00638502
0.00724856
0.00803646
0.00876053
0.00943223
0.0100604
0.0106516
0.0112108
0.0117416
0.0122474
0.0127306
0.0131938
0.0136388
0.0140675
0.0144817
0.0148828
0.0152723
0.0156514
0.0160214
0.0163834
0.0167384
0.0170874
0.0174312
0.0177706
0.0181063
0.0184387
0.0187684
0.0190955
0.01942
0.0197419
0.0200606
0.0203755
0.0206856
0.0209896
0.0212857
0.0215718
0.0218454
0.0221033
0.022342
0.0225572
0.0227436
0.0228955
0.0230057
0.0230658
0.00796671
0.00470179
0.00375867
0.0040343
0.00489627
0.00591801
0.0068975
0.0077852
0.00858656
0.00931747
0.00999202
0.0106207
0.0112108
0.0117677
0.0122953
0.0127969
0.013275
0.0137317
0.0141692
0.0145892
0.0149934
0.0153833
0.0157603
0.0161259
0.0164814
0.0168278
0.0171665
0.0174984
0.0178246
0.018146
0.0184635
0.0187778
0.0190895
0.0193989
0.0197063
0.0200117
0.0203149
0.0206152
0.0209118
0.0212035
0.0214885
0.0217649
0.02203
0.0222807
0.0225134
0.0227236
0.0229062
0.0230552
0.0231635
0.0232226
0.00857526
0.00503272
0.00403807
0.00436184
0.00529676
0.00637654
0.00739304
0.00830212
0.0091147
0.00985055
0.0105263
0.0111539
0.0117416
0.0122953
0.0128191
0.0133161
0.0137887
0.0142391
0.0146691
0.0150804
0.0154747
0.0158533
0.0162178
0.0165696
0.0169099
0.0172401
0.0175614
0.0178751
0.0181823
0.0184841
0.0187815
0.0190754
0.0193666
0.0196558
0.0199434
0.0202295
0.0205142
0.0207971
0.0210773
0.0213539
0.0216253
0.0218894
0.0221437
0.0223851
0.0226099
0.0228136
0.0229911
0.0231362
0.0232418
0.0232995
0.00917159
0.00535513
0.00431153
0.00468349
0.00568854
0.0068227
0.0078732
0.00880137
0.00962334
0.0103625
0.011038
0.0116632
0.0122474
0.0127969
0.0133161
0.013808
0.014275
0.0147191
0.0151419
0.0155449
0.0159296
0.0162974
0.0166497
0.0169878
0.0173131
0.0176269
0.0179306
0.0182254
0.0185127
0.0187937
0.0190696
0.0193415
0.0196104
0.0198771
0.0201425
0.0204068
0.0206704
0.0209329
0.0211941
0.0214528
0.0217078
0.0219571
0.0221982
0.0224281
0.0226431
0.0228386
0.0230096
0.0231497
0.0232519
0.0233078
0.00975622
0.00566962
0.00457953
0.00499964
0.00607221
0.00725755
0.00833953
0.0092849
0.0101147
0.0108559
0.0115296
0.0121512
0.0127306
0.013275
0.0137887
0.014275
0.0147362
0.0151739
0.0155897
0.0159849
0.0163606
0.0167182
0.0170589
0.017384
0.0176947
0.0179925
0.0182787
0.0185546
0.0188216
0.0190812
0.0193347
0.0195834
0.0198285
0.0200711
0.0203122
0.0205524
0.0207924
0.0210321
0.0212714
0.0215096
0.0217455
0.0219774
0.0222028
0.0224189
0.022622
0.0228076
0.0229705
0.0231045
0.0232024
0.0232562
0.0103297
0.00597681
0.00484256
0.00531074
0.00644846
0.00768219
0.00879348
0.00975445
0.0105908
0.0113327
0.0120036
0.0126202
0.0131938
0.0137317
0.0142391
0.0147191
0.0151739
0.0156052
0.0160141
0.0164018
0.0167692
0.0171173
0.0174472
0.0177601
0.0180571
0.0183395
0.0186087
0.018866
0.019113
0.0193511
0.0195818
0.0198065
0.0200268
0.0202439
0.0204591
0.0206734
0.0208876
0.0211021
0.021317
0.021532
0.0217461
0.0219579
0.0221651
0.0223651
0.0225541
0.0227278
0.0228809
0.0230075
0.0231003
0.0231513
0.0108927
0.0062773
0.00510113
0.00561727
0.00681796
0.00809763
0.00923637
0.0102116
0.0110534
0.0117949
0.0124618
0.0130724
0.0136388
0.0141692
0.0146691
0.0151419
0.0155897
0.0160141
0.0164161
0.0167965
0.017156
0.0174953
0.0178153
0.0181169
0.0184011
0.0186691
0.0189222
0.0191618
0.0193892
0.0196061
0.0198141
0.0200146
0.0202095
0.0204003
0.0205884
0.0207751
0.0209617
0.0211488
0.021337
0.0215263
0.021716
0.021905
0.0220914
0.0222726
0.0224452
0.0226049
0.0227467
0.0228644
0.0229511
0.0229988
0.0114458
0.00657161
0.00535568
0.00591969
0.00718135
0.00850478
0.00966937
0.0106577
0.011504
0.0122442
0.0129061
0.0135094
0.0140675
0.0145892
0.0150804
0.0155449
0.0159849
0.0164018
0.0167965
0.0171695
0.0175213
0.0178524
0.0181632
0.0184545
0.018727
0.0189818
0.0192199
0.0194426
0.0196514
0.0198479
0.0200335
0.0202102
0.0203795
0.0205435
0.0207036
0.0208617
0.0210192
0.0211771
0.0213365
0.0214976
0.0216603
0.0218239
0.0219868
0.0221467
0.0223005
0.0224441
0.0225725
0.0226798
0.0227593
0.0228032
0.0119893
0.00686019
0.00560659
0.00621838
0.00753919
0.00890446
0.0100935
0.0110939
0.0119439
0.012682
0.0133381
0.0139331
0.0144817
0.0149934
0.0154747
0.0159296
0.0163606
0.0167692
0.017156
0.0175213
0.0178655
0.0181886
0.0184909
0.0187727
0.0190345
0.0192771
0.0195015
0.0197086
0.0198999
0.0200768
0.0202411
0.0203943
0.0205385
0.0206756
0.0208076
0.0209362
0.0210634
0.0211907
0.0213194
0.0214502
0.0215836
0.0217192
0.021856
0.021992
0.0221244
0.0222495
0.0223625
0.0224577
0.0225287
0.0225682
0.0125237
0.00714342
0.00585421
0.00651371
0.007892
0.00929737
0.0105097
0.0115214
0.0123742
0.0131096
0.013759
0.0143449
0.0148828
0.0153833
0.0158533
0.0162974
0.0167182
0.0171173
0.0174953
0.0178524
0.0181886
0.0185038
0.0187979
0.0190708
0.0193228
0.0195544
0.0197661
0.019959
0.0201341
0.0202928
0.0204367
0.0205675
0.0206873
0.0207979
0.0209017
0.0210006
0.0210969
0.0211924
0.0212889
0.0213876
0.0214895
0.0215947
0.0217027
0.0218121
0.0219206
0.0220247
0.0221202
0.0222016
0.0222628
0.022297
0.0130494
0.00742164
0.00609882
0.00680599
0.00824022
0.00968414
0.0109186
0.0119409
0.0127961
0.0135281
0.0141702
0.014746
0.0152723
0.0157603
0.0162178
0.0166497
0.0170589
0.0174472
0.0178153
0.0181632
0.0184909
0.0187979
0.0190837
0.0193481
0.019591
0.0198125
0.0200128
0.0201926
0.0203529
0.0204948
0.0206197
0.0207293
0.0208256
0.0209106
0.0209867
0.021056
0.0211211
0.0211842
0.0212474
0.0213126
0.021381
0.0214536
0.0215304
0.0216106
0.0216924
0.0217731
0.0218487
0.0219144
0.0219645
0.0219927
0.0135664
0.00769509
0.00634068
0.00709548
0.00858422
0.0100653
0.011321
0.0123532
0.0132104
0.0139386
0.0145727
0.0151377
0.0156514
0.0161259
0.0165696
0.0169878
0.017384
0.0177601
0.0181169
0.0184545
0.0187727
0.0190708
0.0193481
0.0196041
0.0198383
0.0200503
0.0202401
0.0204081
0.0205549
0.0206814
0.0207888
0.0208786
0.0209528
0.0210133
0.0210625
0.0211028
0.0211369
0.0211673
0.0211966
0.021227
0.0212605
0.0212985
0.0213418
0.0213903
0.021443
0.0214976
0.021551
0.021599
0.0216364
0.0216578
0.0140749
0.00796401
0.00657997
0.0073824
0.00892435
0.0104413
0.0117175
0.0127591
0.0136179
0.0143419
0.0149675
0.0155212
0.0160214
0.0164814
0.0169099
0.0173131
0.0176947
0.0180571
0.0184011
0.018727
0.0190345
0.0193228
0.019591
0.0198383
0.0200637
0.0202666
0.0204467
0.0206039
0.0207385
0.0208509
0.0209423
0.0210139
0.0210674
0.0211048
0.0211283
0.0211406
0.0211442
0.0211422
0.0211373
0.0211322
0.0211296
0.0211314
0.0211393
0.0211538
0.0211748
0.0212009
0.0212297
0.0212578
0.0212811
0.0212948
0.0145752
0.00822855
0.00681687
0.00766693
0.00926086
0.0108126
0.0121085
0.0131591
0.0140192
0.0147387
0.0153556
0.0158973
0.0163834
0.0168278
0.0172401
0.0176269
0.0179925
0.0183395
0.0186691
0.0189818
0.0192771
0.0195544
0.0198125
0.0200503
0.0202666
0.0204606
0.0206313
0.0207784
0.0209017
0.0210015
0.0210783
0.0211332
0.0211677
0.0211835
0.0211828
0.0211682
0.0211425
0.0211086
0.0210697
0.021029
0.0209896
0.0209541
0.0209248
0.0209033
0.0208903
0.0208854
0.0208873
0.0208935
0.0209009
0.020906
0.0150671
0.00848886
0.0070515
0.00794921
0.00959399
0.0111794
0.0124943
0.0135537
0.0144149
0.0151298
0.0157376
0.016267
0.0167384
0.0171665
0.0175614
0.0179306
0.0182787
0.0186087
0.0189222
0.0192199
0.0195015
0.0197661
0.0200128
0.0202401
0.0204467
0.0206313
0.0207928
0.0209302
0.021043
0.0211311
0.0211946
0.0212344
0.0212514
0.0212473
0.0212241
0.0211842
0.0211304
0.0210657
0.0209935
0.0209174
0.0208409
0.0207673
0.0206997
0.0206405
0.0205914
0.0205534
0.020526
0.0205083
0.0204982
0.0204938
0.0155507
0.00874501
0.00728394
0.00822934
0.00992388
0.0115421
0.0128755
0.0139433
0.0148054
0.0155156
0.0161144
0.0166312
0.0170874
0.0174984
0.0178751
0.0182254
0.0185546
0.018866
0.0191618
0.0194426
0.0197086
0.019959
0.0201926
0.0204081
0.0206039
0.0207784
0.0209302
0.0210579
0.0211606
0.0212378
0.0212892
0.0213151
0.0213163
0.0212941
0.02125
0.0211865
0.0211061
0.0210121
0.0209077
0.0207969
0.0206836
0.0205716
0.0204648
0.0203667
0.02028
0.0202067
0.0201481
0.0201044
0.0200753
0.0200605
0.0160259
0.00899706
0.00751425
0.00850736
0.0102506
0.0119007
0.0132521
0.0143281
0.0151913
0.0158968
0.0164864
0.0169905
0.0174312
0.0178246
0.0181823
0.0185127
0.0188216
0.019113
0.0193892
0.0196514
0.0198999
0.0201341
0.0203529
0.0205549
0.0207385
0.0209017
0.021043
0.0211606
0.0212533
0.0213199
0.02136
0.0213732
0.0213599
0.0213211
0.021258
0.0211727
0.0210676
0.0209458
0.0208107
0.0206664
0.0205169
0.0203669
0.0202208
0.0200829
0.0199572
0.0198472
0.0197555
0.0196841
0.0196345
0.0196084
0.0164925
0.00924501
0.00774243
0.00878327
0.0105743
0.0122553
0.0136243
0.0147084
0.0155726
0.0162736
0.0168541
0.0173455
0.0177706
0.018146
0.0184841
0.0187937
0.0190812
0.0193511
0.0196061
0.0198479
0.0200768
0.0202928
0.0204948
0.0206814
0.0208509
0.0210015
0.0211311
0.0212378
0.0213199
0.0213761
0.0214051
0.0214064
0.0213799
0.0213259
0.0212454
0.0211401
0.0210122
0.0208645
0.0207005
0.0205241
0.0203398
0.0201525
0.0199673
0.0197895
0.0196242
0.0194762
0.0193499
0.0192493
0.019178
0.0191398
0.0169505
0.00948885
0.00796844
0.00905701
0.0108949
0.0126061
0.0139923
0.0150844
0.0159497
0.0166463
0.017218
0.0176969
0.0181063
0.0184635
0.0187815
0.0190696
0.0193347
0.0195818
0.0198141
0.0200335
0.0202411
0.0204367
0.0206197
0.0207888
0.0209423
0.0210783
0.0211946
0.0212892
0.02136
0.0214051
0.0214231
0.0214129
0.0213738
0.0213059
0.0212096
0.0210861
0.0209373
0.0207657
0.0205747
0.020368
0.0201505
0.0199272
0.0197038
0.0194864
0.0192813
0.0190948
0.018933
0.0188021
0.0187079
0.018657
0.0173995
0.00972848
0.00819219
0.00932846
0.0112122
0.012953
0.0143559
0.0154559
0.0163225
0.0170151
0.0175783
0.0180448
0.0184387
0.0187778
0.0190754
0.0193415
0.0195834
0.0198065
0.0200146
0.0202102
0.0203943
0.0205675
0.0207293
0.0208786
0.0210139
0.0211332
0.0212344
0.0213151
0.0213732
0.0214064
0.0214129
0.0213911
0.02134
0.0212589
0.0211479
0.0210077
0.0208399
0.0206465
0.0204305
0.0201958
0.0199469
0.0196893
0.0194291
0.0191732
0.0189288
0.0187037
0.018506
0.018344
0.0182263
0.0181622
0.0178393
0.0099638
0.00841355
0.00959745
0.0115262
0.0132957
0.0147151
0.015823
0.0166911
0.01738
0.017935
0.0183897
0.0187684
0.0190895
0.0193666
0.0196104
0.0198285
0.0200268
0.0202095
0.0203795
0.0205385
0.0206873
0.0208256
0.0209528
0.0210674
0.0211677
0.0212514
0.0213163
0.0213599
0.0213799
0.0213738
0.02134
0.0212766
0.0211828
0.0210581
0.0209025
0.0207172
0.0205039
0.0202652
0.0200046
0.0197267
0.019437
0.0191419
0.0188488
0.0185662
0.0183032
0.0180698
0.0178767
0.0177352
0.0176576
0.0182694
0.0101946
0.00863231
0.00986368
0.0118365
0.013634
0.0150695
0.0161854
0.0170552
0.0177408
0.0182882
0.0187315
0.0190955
0.0193989
0.0196558
0.0198771
0.0200711
0.0202439
0.0204003
0.0205435
0.0206756
0.0207979
0.0209106
0.0210133
0.0211048
0.0211835
0.0212473
0.0212941
0.0213211
0.0213259
0.0213059
0.0212589
0.0211828
0.0210762
0.0209381
0.0207681
0.0205668
0.0203352
0.0200758
0.0197917
0.0194871
0.0191677
0.01884
0.018512
0.018193
0.0178934
0.0176252
0.0174013
0.0172361
0.0171451
0.0186894
0.0104207
0.00884819
0.0101268
0.0121427
0.0139676
0.0154189
0.0165427
0.0174145
0.0180972
0.0186377
0.0190702
0.01942
0.0197063
0.0199434
0.0201425
0.0203122
0.0204591
0.0205884
0.0207036
0.0208076
0.0209017
0.0209867
0.0210625
0.0211283
0.0211828
0.0212241
0.02125
0.021258
0.0212454
0.0212096
0.0211479
0.0210581
0.0209381
0.0207866
0.0206026
0.0203862
0.0201379
0.0198597
0.0195542
0.0192256
0.0188791
0.0185215
0.0181611
0.017808
0.0174739
0.0171724
0.0169189
0.0167308
0.0166266
0.0190987
0.0106418
0.00906085
0.0103864
0.0124444
0.0142958
0.0157628
0.0168945
0.0177686
0.0184489
0.0189829
0.0194054
0.0197419
0.0200117
0.0202295
0.0204068
0.0205524
0.0206734
0.0207751
0.0208617
0.0209362
0.0210006
0.021056
0.0211028
0.0211406
0.0211682
0.0211842
0.0211865
0.0211727
0.0211401
0.0210861
0.0210077
0.0209025
0.0207681
0.0206026
0.0204047
0.0201737
0.0199099
0.0196144
0.0192897
0.0189394
0.0185686
0.018184
0.0177942
0.0174099
0.0170439
0.0167114
0.0164302
0.0162203
0.0161037
0.0194966
0.0108575
0.00926982
0.0106419
0.0127409
0.0146182
0.0161003
0.01724
0.0181167
0.0187951
0.0193234
0.0197366
0.0200606
0.0203149
0.0205142
0.0206704
0.0207924
0.0208876
0.0209617
0.0210192
0.0210634
0.0210969
0.0211211
0.0211369
0.0211442
0.0211425
0.0211304
0.0211061
0.0210676
0.0210122
0.0209373
0.0208399
0.0207172
0.0205668
0.0203862
0.0201737
0.0199282
0.0196495
0.0193381
0.018996
0.0186263
0.018234
0.0178255
0.0174096
0.0169974
0.0166027
0.0162422
0.0159357
0.0157058
0.0155778
0.0198824
0.0110673
0.00947456
0.0108924
0.0130314
0.0149338
0.0164307
0.0175784
0.0184579
0.019135
0.0196583
0.0200631
0.0203755
0.0206152
0.0207971
0.0209329
0.0210321
0.0211021
0.0211488
0.0211771
0.0211907
0.0211924
0.0211842
0.0211673
0.0211422
0.0211086
0.0210657
0.0210121
0.0209458
0.0208645
0.0207657
0.0206465
0.0205039
0.0203352
0.0201379
0.0199099
0.0196495
0.0193559
0.0190295
0.0186714
0.0182845
0.0178733
0.0174441
0.0170056
0.0165692
0.0161495
0.0157645
0.0154357
0.0151882
0.01505
0.0202548
0.0112706
0.00967439
0.0111373
0.0133149
0.0152415
0.0167529
0.0179086
0.0187912
0.0194674
0.0199864
0.0203837
0.0206856
0.0209118
0.0210773
0.0211941
0.0212714
0.021317
0.021337
0.0213365
0.0213194
0.0212889
0.0212474
0.0211966
0.0211373
0.0210697
0.0209935
0.0209077
0.0208107
0.0207005
0.0205747
0.0204305
0.0202652
0.0200758
0.0198597
0.0196144
0.0193381
0.0190295
0.0186883
0.0183154
0.017913
0.0174854
0.0170384
0.0165809
0.0161243
0.0156837
0.0152781
0.0149306
0.0146684
0.0145216
0.0206129
0.0114668
0.00986847
0.0113754
0.0135902
0.0155403
0.0170657
0.0182292
0.0191151
0.019791
0.0203064
0.0206971
0.0209896
0.0212035
0.0213539
0.0214528
0.0215096
0.021532
0.0215263
0.0214976
0.0214502
0.0213876
0.0213126
0.021227
0.0211322
0.021029
0.0209174
0.0207969
0.0206664
0.0205241
0.020368
0.0201958
0.0200046
0.0197917
0.0195542
0.0192897
0.018996
0.0186714
0.0183154
0.0179282
0.0175119
0.01707
0.0166083
0.0161352
0.0156624
0.0152052
0.0147834
0.0144211
0.0141472
0.0139936
0.0209551
0.0116549
0.0100558
0.0116055
0.0138561
0.0158284
0.0173674
0.0185386
0.019428
0.0201041
0.0206166
0.0210016
0.0212857
0.0214885
0.0216253
0.0217078
0.0217455
0.0217461
0.021716
0.0216603
0.0215836
0.0214895
0.021381
0.0212605
0.0211296
0.0209896
0.0208409
0.0206836
0.0205169
0.0203398
0.0201505
0.0199469
0.0197267
0.0194871
0.0192256
0.0189394
0.0186263
0.0182845
0.017913
0.0175119
0.0170826
0.0166282
0.0161544
0.0156691
0.0151841
0.0147147
0.0142812
0.0139084
0.0136262
0.0134679
0.0212798
0.011834
0.0102353
0.0118261
0.0141106
0.0161042
0.0176561
0.0188349
0.019728
0.0204045
0.0209148
0.021295
0.0215718
0.0217649
0.0218894
0.0219571
0.0219774
0.0219579
0.021905
0.0218239
0.0217192
0.0215947
0.0214536
0.0212985
0.0211314
0.0209541
0.0207673
0.0205716
0.0203669
0.0201525
0.0199272
0.0196893
0.019437
0.0191677
0.0188791
0.0185686
0.018234
0.0178733
0.0174854
0.01707
0.0166282
0.016163
0.0156793
0.015185
0.0146916
0.0142144
0.0137737
0.0133947
0.0131077
0.0129467
0.0215849
0.0120029
0.0104055
0.0120355
0.014352
0.0163656
0.0179297
0.0191157
0.0200125
0.0206899
0.0211985
0.0215748
0.0218454
0.02203
0.0221437
0.0221982
0.0222028
0.0221651
0.0220914
0.0219868
0.021856
0.0217027
0.0215304
0.0213418
0.0211393
0.0209248
0.0206997
0.0204648
0.0202208
0.0199673
0.0197038
0.0194291
0.0191419
0.01884
0.0185215
0.018184
0.0178255
0.0174441
0.0170384
0.0166083
0.0161544
0.0156793
0.0151878
0.0146874
0.0141891
0.0137082
0.0132647
0.0128836
0.0125953
0.0124336
0.0218678
0.01216
0.0105647
0.0122315
0.0145778
0.0166099
0.0181854
0.0193784
0.0202789
0.0209574
0.0214649
0.021838
0.0221033
0.0222807
0.0223851
0.0224281
0.0224189
0.0223651
0.0222726
0.0221467
0.021992
0.0218121
0.0216106
0.0213903
0.0211538
0.0209033
0.0206405
0.0203667
0.0200829
0.0197895
0.0194864
0.0191732
0.0188488
0.018512
0.0181611
0.0177942
0.0174096
0.0170056
0.0165809
0.0161352
0.0156691
0.015185
0.0146874
0.0141833
0.0136835
0.0132026
0.0127602
0.012381
0.0120946
0.0119341
0.0221258
0.0123037
0.010711
0.0124116
0.0147851
0.0168342
0.0184203
0.0196197
0.0205237
0.0212035
0.0217103
0.0220809
0.022342
0.0225134
0.0226099
0.0226431
0.022622
0.0225541
0.0224452
0.0223005
0.0221244
0.0219206
0.0216924
0.021443
0.0211748
0.0208903
0.0205914
0.02028
0.0199572
0.0196242
0.0192813
0.0189288
0.0185662
0.018193
0.017808
0.0174099
0.0169974
0.0165692
0.0161243
0.0156624
0.0151841
0.0146916
0.0141891
0.0136835
0.0131848
0.0127072
0.0122695
0.0118955
0.0116136
0.0114559
0.0223553
0.0124319
0.010842
0.0125731
0.0149708
0.017035
0.0186305
0.0198357
0.0207431
0.0214242
0.0219307
0.0222994
0.0225572
0.0227236
0.0228136
0.0228386
0.0228076
0.0227278
0.0226049
0.0224441
0.0222495
0.0220247
0.0217731
0.0214976
0.0212009
0.0208854
0.0205534
0.0202067
0.0198472
0.0194762
0.0190948
0.0187037
0.0183032
0.0178934
0.0174739
0.0170439
0.0166027
0.0161495
0.0156837
0.0152052
0.0147147
0.0142144
0.0137082
0.0132026
0.0127072
0.0122353
0.011805
0.0114387
0.0111635
0.0110099
0.0225519
0.0125419
0.0109549
0.0127124
0.0151309
0.017208
0.0188116
0.0200219
0.0209322
0.0216147
0.0221211
0.0224885
0.0227436
0.0229062
0.0229911
0.0230096
0.0229705
0.0228809
0.0227467
0.0225725
0.0223625
0.0221202
0.0218487
0.021551
0.0212297
0.0208873
0.020526
0.0201481
0.0197555
0.0193499
0.018933
0.018506
0.0180698
0.0176252
0.0171724
0.0167114
0.0162422
0.0157645
0.0152781
0.0147834
0.0142812
0.0137737
0.0132647
0.0127602
0.0122695
0.011805
0.0113837
0.0110266
0.0107593
0.0106104
0.0227106
0.0126309
0.0110465
0.0128253
0.0152606
0.0173482
0.0189583
0.0201728
0.0210856
0.0217692
0.0222757
0.0226422
0.0228955
0.0230552
0.0231362
0.0231497
0.0231045
0.0230075
0.0228644
0.0226798
0.0224577
0.0222016
0.0219144
0.021599
0.0212578
0.0208935
0.0205083
0.0201044
0.0196841
0.0192493
0.0188021
0.018344
0.0178767
0.0174013
0.0169189
0.0164302
0.0159357
0.0154357
0.0149306
0.0144211
0.0139084
0.0133947
0.0128836
0.012381
0.0118955
0.0114387
0.0110266
0.010679
0.0104196
0.0102754
0.0228248
0.0126951
0.0111127
0.012907
0.0153544
0.0174495
0.0190644
0.0202819
0.0211965
0.0218811
0.0223877
0.0227536
0.0230057
0.0231635
0.0232418
0.0232519
0.0232024
0.0231003
0.0229511
0.0227593
0.0225287
0.0222628
0.0219645
0.0216364
0.0212811
0.0209009
0.0204982
0.0200753
0.0196345
0.019178
0.0187079
0.0182263
0.0177352
0.0172361
0.0167308
0.0162203
0.0157058
0.0151882
0.0146684
0.0141472
0.0136262
0.0131077
0.0125953
0.0120946
0.0116136
0.0111635
0.0107593
0.0104196
0.0101669
0.0100267
0.0228869
0.01273
0.0111488
0.0129514
0.0154054
0.0175047
0.0191221
0.0203412
0.0212569
0.021942
0.0224487
0.0228144
0.0230658
0.0232226
0.0232995
0.0233078
0.0232562
0.0231513
0.0229988
0.0228032
0.0225682
0.022297
0.0219927
0.0216578
0.0212948
0.020906
0.0204938
0.0200605
0.0196084
0.0191398
0.018657
0.0181622
0.0176576
0.0171451
0.0166266
0.0161037
0.0155778
0.01505
0.0145216
0.0139936
0.0134679
0.0129467
0.0124336
0.0119341
0.0114559
0.0110099
0.0106104
0.0102754
0.0100267
0.00988885
)
;

boundaryField
{
    bottomWall
    {
        type            kqRWallFunction;
        value           nonuniform List<scalar> 
50
(
0.00123015
0.00133332
0.00156459
0.00191719
0.00237196
0.00290563
0.00349531
0.00412095
0.00476618
0.00541856
0.00606931
0.00671278
0.00734575
0.00796671
0.00857526
0.00917159
0.00975622
0.0103297
0.0108927
0.0114458
0.0119893
0.0125237
0.0130494
0.0135664
0.0140749
0.0145752
0.0150671
0.0155507
0.0160259
0.0164925
0.0169505
0.0173995
0.0178393
0.0182694
0.0186894
0.0190987
0.0194966
0.0198824
0.0202548
0.0206129
0.0209551
0.0212798
0.0215849
0.0218678
0.0221258
0.0223553
0.0225519
0.0227106
0.0228248
0.0228869
)
;
    }
    leftWall
    {
        type            kqRWallFunction;
        value           nonuniform List<scalar> 
50
(
0.00123015
0.00133332
0.00156459
0.00191719
0.00237196
0.00290563
0.00349531
0.00412095
0.00476618
0.00541856
0.00606931
0.00671278
0.00734575
0.00796671
0.00857526
0.00917159
0.00975622
0.0103297
0.0108927
0.0114458
0.0119893
0.0125237
0.0130494
0.0135664
0.0140749
0.0145752
0.0150671
0.0155507
0.0160259
0.0164925
0.0169505
0.0173995
0.0178393
0.0182694
0.0186894
0.0190987
0.0194966
0.0198824
0.0202548
0.0206129
0.0209551
0.0212798
0.0215849
0.0218678
0.0221258
0.0223553
0.0225519
0.0227106
0.0228248
0.0228869
)
;
    }
    topSym
    {
        type            symmetryPlane;
    }
    rightSym
    {
        type            symmetryPlane;
    }
    inlet
    {
        type            cyclic;
    }
    outlet
    {
        type            cyclic;
    }
}


// ************************************************************************* //
