/*--------------------------------*- C++ -*----------------------------------*\
| =========                 |                                                 |
| \\      /  F ield         | OpenFOAM: The Open Source CFD Toolbox           |
|  \\    /   O peration     | Version:  2.3.x                                 |
|   \\  /    A nd           | Web:      www.OpenFOAM.org                      |
|    \\/     M anipulation  |                                                 |
\*---------------------------------------------------------------------------*/
FoamFile
{
    version     2.0;
    format      ascii;
    class       volScalarField;
    location    "3000";
    object      nut;
}
// * * * * * * * * * * * * * * * * * * * * * * * * * * * * * * * * * * * * * //

dimensions      [0 2 -1 0 0 0 0];

internalField   nonuniform List<scalar> 
1500
(
1.33243e-08
8.44974e-09
1.30342e-08
1.03643e-07
3.22903e-07
5.93846e-07
4.37588e-07
4.02678e-07
5.39931e-07
9.44068e-07
1.6573e-06
2.96614e-06
6.59813e-06
1.84975e-05
9.34508e-05
9.35976e-05
3.48096e-05
2.30289e-06
1.5843e-06
2.33112e-06
9.01957e-06
1.48164e-05
1.87944e-05
1.67574e-05
1.6191e-05
1.81955e-05
2.27813e-05
2.87079e-05
3.63659e-05
4.95243e-05
7.16791e-05
0.000141064
0.000141473
8.95388e-05
1.21406e-05
9.57264e-06
1.15721e-05
3.08825e-05
4.54295e-05
5.47801e-05
5.4783e-05
5.52885e-05
5.99616e-05
6.87419e-05
7.98018e-05
9.32501e-05
0.000111283
0.000134742
0.00019384
0.000194388
0.000151603
4.22924e-05
3.1056e-05
2.76365e-05
5.00269e-05
7.26356e-05
8.94415e-05
9.55805e-05
9.98784e-05
0.000107763
0.000119856
0.000135209
0.000153741
0.000175816
0.00020006
0.000249698
0.000251078
0.000217432
9.90079e-05
7.2603e-05
5.51299e-05
7.13799e-05
9.72422e-05
0.000120908
0.000134977
0.000144943
0.000157335
0.000173463
0.000193588
0.000217468
0.000243576
0.000268411
0.000308936
0.000311862
0.000287955
0.000175055
0.000132196
9.54641e-05
9.82825e-05
0.0001227
0.000149369
0.000171697
0.000188692
0.000206994
0.000228215
0.000253705
0.000283054
0.000313102
0.000338581
0.00037095
0.000376184
0.000362276
0.000268488
0.000209202
0.000150333
0.000134415
0.000151898
0.000178006
0.000204904
0.000229084
0.00025424
0.000281615
0.000313043
0.000347792
0.000381671
0.000408155
0.00043437
0.000442616
0.000438235
0.000378203
0.00030395
0.000222223
0.00018412
0.000188438
0.000210382
0.000237032
0.000264849
0.000296562
0.000330582
0.000368372
0.000408306
0.000445954
0.000473834
0.000497043
0.000508791
0.000512746
0.00050148
0.00041568
0.000313499
0.000252082
0.000237631
0.000249975
0.000272749
0.000299682
0.000332625
0.000372259
0.000416406
0.000461068
0.000501717
0.000532221
0.000555722
0.000571351
0.000582107
0.000632953
0.000541219
0.000424947
0.00034237
0.000306089
0.000302476
0.000316213
0.000338739
0.000368645
0.000407521
0.000454243
0.000502028
0.000545503
0.000579624
0.000605998
0.000625905
0.00064211
0.000763711
0.000673688
0.00055376
0.000456506
0.000399578
0.000375968
0.00037432
0.000387049
0.000410305
0.000443019
0.00048488
0.00053092
0.000575241
0.000612574
0.000642898
0.000667317
0.000688031
0.000880518
0.000801144
0.00069093
0.00059026
0.000519227
0.000476875
0.000456613
0.000453674
0.000464779
0.000487218
0.000518963
0.000555435
0.00059457
0.000631304
0.000663805
0.00069166
0.000715726
0.000965723
0.000905604
0.000818631
0.000729389
0.000656205
0.000602893
0.000567479
0.000548179
0.000543612
0.000551671
0.000569916
0.000592744
0.000619646
0.000648113
0.000676379
0.000702884
0.000726957
0.000999238
0.000963786
0.000909346
0.000845885
0.000785734
0.00073479
0.000694713
0.000666091
0.000649307
0.000643701
0.000647691
0.000658538
0.000671765
0.000686727
0.000703343
0.000720758
0.000738188
0.000962562
0.000950627
0.000929012
0.000898736
0.000864513
0.00083076
0.000800495
0.000775388
0.000756533
0.00074435
0.000738526
0.000738042
0.000740555
0.000745563
0.000751972
0.000758809
0.000765603
1.69229e-05
1.02111e-05
6.67904e-06
4.67555e-06
3.4115e-06
2.57188e-06
1.98673e-06
1.56534e-06
1.25384e-06
1.01898e-06
8.39418e-07
7.00368e-07
5.92635e-07
5.077e-07
4.44425e-07
3.91059e-07
6.87191e-05
5.72855e-05
4.89703e-05
4.27339e-05
3.77717e-05
3.37502e-05
3.04203e-05
2.76263e-05
2.52553e-05
2.32261e-05
2.14803e-05
1.99702e-05
1.86722e-05
1.75397e-05
1.66136e-05
1.57673e-05
0.00013212
0.000120148
0.000110682
0.000102845
9.60089e-05
8.99409e-05
8.44769e-05
7.95234e-05
7.5015e-05
7.09052e-05
6.71617e-05
6.37537e-05
6.06758e-05
5.78858e-05
5.54633e-05
5.32239e-05
0.000199878
0.000188078
0.000178317
0.000169821
0.000162111
0.000155013
0.000148416
0.000142261
0.000136512
0.00013114
0.000126128
0.000121457
0.000117127
0.000113102
0.000109459
0.000106038
0.000273373
0.000262568
0.00025321
0.000244673
0.000236641
0.000229004
0.000221713
0.000214747
0.0002081
0.000201767
0.000195747
0.000190032
0.00018463
0.00017951
0.000174737
0.000170167
0.000351843
0.00034305
0.00033495
0.000327138
0.000319463
0.000311898
0.000304456
0.00029716
0.00029004
0.000283116
0.000276408
0.000269923
0.000263676
0.000257644
0.000251882
0.000246248
0.000432952
0.000427246
0.00042135
0.000415144
0.000408643
0.000401909
0.000395016
0.000388038
0.000381037
0.000374064
0.00036716
0.00036035
0.000353662
0.000347081
0.000340654
0.000334237
0.000513184
0.0005115
0.000508716
0.000505012
0.000500551
0.000495483
0.000489945
0.000484054
0.000477907
0.000471584
0.000465149
0.000458647
0.000452118
0.000445565
0.00043903
0.000432374
0.000588287
0.000591244
0.000592301
0.000591875
0.000590246
0.000587647
0.000584267
0.000580261
0.00057576
0.00057087
0.000565676
0.000560247
0.00055464
0.00054888
0.000543013
0.000536923
0.000653626
0.000661459
0.000666816
0.00067023
0.000672057
0.000672588
0.000672056
0.000670653
0.000668535
0.000665835
0.000662661
0.000659104
0.000655244
0.000651138
0.000646853
0.000642317
0.000704282
0.00071689
0.000726714
0.000734279
0.000739971
0.000744108
0.00074695
0.000748717
0.00074959
0.000749724
0.000749255
0.000748298
0.000746964
0.000745352
0.000743562
0.000741586
0.00073571
0.000752478
0.000766472
0.000778119
0.000787771
0.000795725
0.000802243
0.000807551
0.000811845
0.000815299
0.000818068
0.000820296
0.000822128
0.000823705
0.000825175
0.000826591
0.00074786
0.000766568
0.000783082
0.000797621
0.000810406
0.000821641
0.000831521
0.000840233
0.000847948
0.00085483
0.000861035
0.000866719
0.000872043
0.000877177
0.000882302
0.000887497
0.000754127
0.000769511
0.000784032
0.00079766
0.00081041
0.000822311
0.000833416
0.000843792
0.00085352
0.000862693
0.000871414
0.000879797
0.000887974
0.000896092
0.000904303
0.000912651
0.000772636
0.000780119
0.00078778
0.000795559
0.000803417
0.000811322
0.000819247
0.000827181
0.000835121
0.000843081
0.000851083
0.000859168
0.000867386
0.000875805
0.000884496
0.000893428
3.47925e-07
3.3634e-07
3.4599e-07
3.99105e-07
5.16799e-07
1.13921e-06
2.38553e-06
2.06967e-06
1.31573e-06
6.26252e-07
2.81812e-07
1.47643e-07
8.92454e-08
5.36686e-08
2.95961e-08
1.0078e-08
8.59987e-09
1.50186e-05
1.48323e-05
1.50094e-05
1.59046e-05
1.76234e-05
2.37179e-05
3.12142e-05
2.98193e-05
2.49149e-05
1.85131e-05
1.33484e-05
1.00849e-05
7.75448e-06
5.40048e-06
3.20641e-06
1.74005e-06
1.6517e-06
5.09977e-05
5.01108e-05
5.02146e-05
5.17949e-05
5.50144e-05
6.42161e-05
7.70702e-05
7.92014e-05
7.42595e-05
6.46853e-05
5.40133e-05
4.46995e-05
3.71936e-05
3.06039e-05
2.45271e-05
1.67294e-05
1.2556e-05
0.000102251
0.000100504
0.000100151
0.000101611
0.000104902
0.000113867
0.000129768
0.000136964
0.000135537
0.000127812
0.000116715
0.000104713
9.47078e-05
8.91977e-05
8.77472e-05
7.25171e-05
5.10697e-05
0.000164752
0.000162048
0.000161068
0.000162085
0.000164847
0.000172654
0.000190744
0.000203783
0.000208037
0.000204757
0.00019574
0.000183382
0.000173415
0.000171992
0.000176698
0.000156703
0.000118851
0.000239239
0.000235564
0.000233925
0.000234391
0.000236384
0.00024277
0.000262445
0.000281685
0.000293319
0.000296628
0.000291849
0.000281312
0.000273392
0.000276771
0.000285487
0.000258982
0.000206896
0.000325928
0.00032146
0.000319323
0.000319358
0.000320715
0.000325971
0.000346909
0.000372247
0.00039223
0.00040366
0.000405034
0.000398644
0.000394597
0.000402227
0.000411634
0.000377544
0.000313005
0.000423408
0.00041861
0.000416415
0.000416467
0.000417826
0.000422912
0.000445261
0.000476157
0.000504407
0.000524453
0.000533265
0.000533039
0.000534056
0.000544159
0.00055041
0.000508848
0.000434828
0.000528295
0.000523977
0.000522472
0.000523376
0.000525907
0.000532424
0.000556949
0.000592383
0.000627608
0.000655439
0.000671912
0.000678874
0.000684891
0.000694668
0.000694316
0.000646862
0.000567876
0.000635267
0.000632552
0.000632736
0.00063561
0.000640798
0.000650621
0.000678222
0.000716719
0.000756478
0.000789889
0.000812812
0.000826284
0.000835564
0.000841815
0.00083294
0.000782843
0.000704827
0.000737387
0.00073734
0.000740466
0.000746409
0.000755507
0.00076996
0.000800383
0.000839931
0.000880773
0.000916262
0.000942731
0.000959949
0.00096939
0.000969751
0.000953123
0.000905229
0.00083495
0.000826293
0.000829761
0.0008365
0.00084637
0.000859618
0.000878433
0.000909405
0.000946405
0.000983763
0.00101666
0.00104221
0.00105894
0.00106555
0.00106019
0.0010399
0.000999962
0.0009438
0.000891621
0.000898738
0.000908546
0.000921394
0.000937882
0.000958502
0.000985016
0.0010144
0.00104323
0.00106865
0.00108858
0.00110103
0.00110397
0.00109638
0.00107886
0.00105188
0.00101384
0.000920639
0.000930185
0.000940874
0.00095323
0.00096772
0.000984338
0.00100284
0.00102165
0.00103948
0.00105504
0.00106704
0.00107396
0.00107477
0.00106963
0.00106039
0.00104794
0.00102728
0.000902825
0.000911934
0.000920229
0.000928313
0.000936474
0.000944905
0.000953965
0.000963016
0.000971564
0.000978775
0.000983662
0.000985616
0.000985229
0.000983834
0.000983039
0.000980347
0.000970454
0.000863128
0.000862778
0.000860834
0.000855742
0.000846158
0.000833302
0.000819426
0.000805994
0.000793804
0.000783498
0.000775633
0.000770564
0.000768061
0.000767777
0.00076921
0.000771555
0.000772441
0.000738237
0.000741764
0.00074797
0.000756507
0.000763623
0.000767499
0.000768285
0.000766979
0.000764485
0.000761477
0.000758498
0.00075599
0.000754153
0.000752986
0.000752329
0.000751701
0.000748247
0.000606438
0.00061136
0.000620691
0.000635107
0.00065064
0.000664259
0.000674615
0.000682069
0.000687435
0.000691304
0.000694005
0.00069567
0.000696397
0.000696267
0.000695349
0.000693387
0.000687158
0.00046883
0.000474145
0.000484541
0.000501147
0.00052028
0.00053867
0.000554274
0.000567016
0.000577566
0.000586391
0.000593594
0.000598944
0.000602293
0.000603643
0.000603171
0.000600733
0.000592654
0.00033664
0.00034157
0.000351297
0.000367051
0.000385828
0.000404724
0.0004216
0.00043614
0.00044885
0.000460061
0.000469697
0.000477257
0.000482356
0.000484861
0.000484946
0.000482458
0.00047324
0.000225993
0.000229737
0.000237277
0.000249695
0.000264879
0.00028065
0.000295214
0.000308194
0.000319923
0.000330602
0.000340059
0.000347685
0.000352965
0.000355654
0.000355863
0.000353319
0.000343699
0.000145058
0.000147103
0.000151762
0.00015984
0.000170005
0.000180823
0.000191023
0.000200294
0.000208838
0.000216763
0.000223882
0.000229641
0.000233548
0.000235332
0.000235046
0.000232323
0.000223421
9.04685e-05
9.08514e-05
9.28972e-05
9.71258e-05
0.000102734
0.000108843
0.000114654
0.000119964
0.000124894
0.000129498
0.000133629
0.000136889
0.00013892
0.000139532
0.000138775
0.000136395
0.000129987
5.4068e-05
5.33196e-05
5.36289e-05
5.52857e-05
5.78018e-05
6.06617e-05
6.3408e-05
6.59334e-05
6.83135e-05
7.05786e-05
7.26419e-05
7.42794e-05
7.53071e-05
7.56531e-05
7.53513e-05
7.44958e-05
7.18592e-05
2.96692e-05
2.86367e-05
2.83194e-05
2.88397e-05
2.99033e-05
3.1227e-05
3.25808e-05
3.3924e-05
3.53043e-05
3.67414e-05
3.81975e-05
3.95768e-05
4.08122e-05
4.18918e-05
4.28618e-05
4.37496e-05
4.39864e-05
1.45188e-05
1.3905e-05
1.37921e-05
1.41832e-05
1.49214e-05
1.58689e-05
1.6929e-05
1.80955e-05
1.93972e-05
2.08456e-05
2.2423e-05
2.40833e-05
2.57845e-05
2.74941e-05
2.92007e-05
3.08197e-05
3.19725e-05
6.47618e-06
6.3468e-06
6.50871e-06
6.97189e-06
7.65557e-06
8.4959e-06
9.45813e-06
1.05532e-05
1.18074e-05
1.32319e-05
1.48061e-05
1.6471e-05
1.81531e-05
1.97821e-05
2.13131e-05
2.26826e-05
2.35609e-05
2.04663e-06
2.02457e-06
2.17454e-06
2.53582e-06
3.05791e-06
3.70396e-06
4.45642e-06
5.32986e-06
6.34593e-06
7.50414e-06
8.76101e-06
1.00325e-05
1.12333e-05
1.23025e-05
1.32221e-05
1.39531e-05
1.43177e-05
1.24017e-07
1.18435e-07
1.27836e-07
1.63168e-07
2.21291e-07
3.07536e-07
4.354e-07
6.3717e-07
9.64985e-07
1.4672e-06
2.13172e-06
2.85958e-06
3.53501e-06
4.09102e-06
4.52354e-06
4.8115e-06
4.90217e-06
1.17012e-09
1.12201e-09
1.18517e-09
1.44444e-09
1.80618e-09
2.275e-09
2.90429e-09
3.85728e-09
5.42883e-09
8.06335e-09
1.22356e-08
1.79059e-08
2.41284e-08
2.97899e-08
3.4495e-08
3.78443e-08
3.85388e-08
0.000774174
0.000776361
0.000778807
0.000781497
0.000784429
0.000787601
0.000791016
0.000794676
0.000798589
0.000802769
0.000807232
0.000812003
0.000817113
0.000822605
0.000828552
0.000835035
0.000746416
0.000745036
0.000743889
0.000742972
0.000742289
0.000741851
0.000741669
0.000741756
0.000742127
0.000742799
0.000743793
0.000745137
0.00074686
0.000749007
0.00075166
0.000754993
0.000683444
0.000680169
0.000677083
0.000674192
0.000671506
0.000669038
0.000666803
0.000664816
0.000663094
0.000661655
0.000660522
0.00065972
0.000659278
0.000659238
0.000659671
0.000660775
0.000588029
0.000583809
0.000579744
0.000575846
0.000572127
0.000568599
0.000565278
0.00056218
0.000559324
0.000556731
0.000554424
0.00055243
0.00055078
0.000549511
0.000548685
0.000548497
0.000468271
0.000463626
0.000459099
0.00045471
0.000450476
0.000446414
0.000442544
0.000438887
0.000435467
0.000432307
0.000429435
0.000426879
0.00042467
0.000422845
0.00042145
0.000420623
0.00033873
0.000333997
0.000329379
0.000324908
0.000320609
0.000316506
0.000312624
0.000308987
0.00030562
0.000302545
0.000299785
0.000297363
0.000295302
0.000293626
0.000292357
0.000291533
0.000218963
0.000214747
0.00021073
0.000206945
0.000203413
0.000200154
0.000197183
0.000194513
0.000192151
0.000190103
0.000188372
0.000186961
0.00018587
0.0001851
0.000184614
0.000184445
0.000127014
0.000124359
0.000122004
0.000119954
0.000118207
0.000116753
0.000115581
0.000114675
0.000114016
0.000113585
0.000113366
0.00011334
0.000113492
0.000113807
0.000114192
0.000114784
7.1075e-05
7.05739e-05
7.0321e-05
7.02869e-05
7.04416e-05
7.07549e-05
7.1197e-05
7.1741e-05
7.23628e-05
7.30422e-05
7.37626e-05
7.45107e-05
7.52748e-05
7.60062e-05
7.67314e-05
7.74932e-05
4.48256e-05
4.57658e-05
4.67619e-05
4.778e-05
4.87944e-05
4.97852e-05
5.07375e-05
5.16411e-05
5.24891e-05
5.32777e-05
5.40053e-05
5.46714e-05
5.52519e-05
5.57632e-05
5.62091e-05
5.66155e-05
3.31903e-05
3.43356e-05
3.53817e-05
3.63204e-05
3.71532e-05
3.78848e-05
3.85204e-05
3.90661e-05
3.95274e-05
3.99099e-05
4.02195e-05
4.04473e-05
4.06031e-05
4.06924e-05
4.07132e-05
4.06877e-05
2.43907e-05
2.50922e-05
2.5655e-05
2.60943e-05
2.64299e-05
2.66775e-05
2.68489e-05
2.69534e-05
2.69986e-05
2.69904e-05
2.69312e-05
2.68222e-05
2.66667e-05
2.64671e-05
2.62198e-05
2.59474e-05
1.46541e-05
1.48856e-05
1.50072e-05
1.5051e-05
1.50407e-05
1.49892e-05
1.49043e-05
1.47914e-05
1.46546e-05
1.44967e-05
1.43197e-05
1.41217e-05
1.39037e-05
1.36674e-05
1.34064e-05
1.31525e-05
5.01107e-06
5.04482e-06
5.02297e-06
4.97556e-06
4.91348e-06
4.84011e-06
4.75785e-06
4.66856e-06
4.57344e-06
4.47332e-06
4.36916e-06
4.26186e-06
4.14868e-06
4.03116e-06
3.90334e-06
3.79445e-06
3.98623e-08
4.03711e-08
4.00928e-08
3.94901e-08
3.86988e-08
3.77737e-08
3.67511e-08
3.56586e-08
3.45146e-08
3.3332e-08
3.21244e-08
3.09155e-08
2.97035e-08
2.84699e-08
2.71676e-08
2.60284e-08
0.000842847
0.0008493
0.00085407
0.000857671
0.000860102
0.00086162
0.000862633
0.000863549
0.000864354
0.000864571
0.000863436
0.000860686
0.000857483
0.000855769
0.000857737
0.000862
0.000858551
0.000760675
0.000763499
0.000764719
0.000764724
0.000763444
0.000761059
0.00075795
0.000754545
0.00075091
0.000746707
0.000741371
0.000734873
0.000728573
0.000724591
0.000725354
0.000730162
0.000728037
0.000665189
0.000665146
0.000663415
0.000660341
0.000655861
0.000650186
0.000643749
0.000637055
0.000630213
0.000622921
0.00061465
0.000605463
0.000596914
0.000591322
0.000591293
0.000596072
0.000593777
0.000552504
0.000550482
0.000546604
0.0005412
0.000534242
0.000526033
0.000517114
0.000508088
0.000499102
0.000489858
0.000479838
0.000469178
0.000459559
0.00045333
0.000453058
0.000457793
0.000455284
0.000424472
0.000421385
0.000416423
0.000409909
0.0004019
0.000392801
0.000383236
0.000373841
0.000364746
0.000355652
0.000346078
0.000336188
0.000327517
0.000322079
0.000322036
0.000326408
0.000324206
0.000295037
0.000292144
0.000287724
0.000282069
0.000275296
0.000267815
0.000260172
0.000252868
0.000245955
0.000239155
0.000232073
0.000224825
0.000218548
0.000214683
0.000214813
0.000218188
0.000216483
0.00018746
0.000185963
0.000183492
0.000180231
0.000176267
0.000171868
0.000167373
0.000163075
0.000158974
0.000154861
0.000150462
0.000145836
0.000141707
0.000139013
0.000138836
0.00014073
0.00013913
0.000117218
0.000117109
0.000116407
0.000115186
0.000113467
0.000111373
0.000109074
0.000106725
0.000104319
0.000101732
9.87963e-05
9.55448e-05
9.24328e-05
9.00757e-05
8.92124e-05
8.95883e-05
8.76488e-05
7.91386e-05
7.94235e-05
7.92802e-05
7.87281e-05
7.7758e-05
7.64232e-05
7.48131e-05
7.30201e-05
7.10461e-05
6.8821e-05
6.62462e-05
6.33549e-05
6.04596e-05
5.79828e-05
5.64294e-05
5.56457e-05
5.33534e-05
5.7438e-05
5.74027e-05
5.70176e-05
5.62933e-05
5.52159e-05
5.38154e-05
5.21508e-05
5.02879e-05
4.82347e-05
4.59552e-05
4.33995e-05
4.06129e-05
3.78252e-05
3.53271e-05
3.34457e-05
3.21104e-05
2.99585e-05
4.08971e-05
4.04407e-05
3.97144e-05
3.87261e-05
3.74627e-05
3.5945e-05
3.42176e-05
3.23336e-05
3.03117e-05
2.81482e-05
2.58383e-05
2.34407e-05
2.11194e-05
1.90607e-05
1.74511e-05
1.62774e-05
1.48942e-05
2.58283e-05
2.51845e-05
2.43646e-05
2.33726e-05
2.21967e-05
2.08519e-05
1.93754e-05
1.78152e-05
1.62045e-05
1.45664e-05
1.29243e-05
1.13301e-05
9.87677e-06
8.65846e-06
7.75515e-06
7.14001e-06
6.56941e-06
1.2985e-05
1.24737e-05
1.18831e-05
1.1209e-05
1.0438e-05
9.5816e-06
8.66924e-06
7.73555e-06
6.80568e-06
5.89639e-06
5.0221e-06
4.20886e-06
3.49834e-06
2.92818e-06
2.52628e-06
2.26214e-06
2.03517e-06
3.73145e-06
3.4758e-06
3.20926e-06
2.91217e-06
2.5752e-06
2.2105e-06
1.83871e-06
1.48113e-06
1.15386e-06
8.68096e-07
6.31011e-07
4.46981e-07
3.15551e-07
2.29106e-07
1.77036e-07
1.46647e-07
1.24976e-07
2.61166e-08
2.27442e-08
2.01387e-08
1.74836e-08
1.47388e-08
1.20871e-08
9.71419e-09
7.71154e-09
6.07421e-09
4.75502e-09
3.7014e-09
2.87466e-09
2.24892e-09
1.79872e-09
1.4999e-09
1.31102e-09
1.16957e-09
)
;

boundaryField
{
    topWall
    {
        type            nutLowReWallFunction;
        Cmu             0.09;
        kappa           0.41;
        E               9.8;
        value           uniform 3.00359e-19;
    }
    bottomWall
    {
        type            nutLowReWallFunction;
        Cmu             0.09;
        kappa           0.41;
        E               9.8;
        value           uniform 3.00359e-19;
    }
    inlet
    {
        type            cyclic;
    }
    outlet
    {
        type            cyclic;
    }
    defaultFaces
    {
        type            empty;
    }
}


// ************************************************************************* //
