/*--------------------------------*- C++ -*----------------------------------*\
| =========                 |                                                 |
| \\      /  F ield         | OpenFOAM: The Open Source CFD Toolbox           |
|  \\    /   O peration     | Version:  2.3.x                                 |
|   \\  /    A nd           | Website:      www.OpenFOAM.org                      |
|    \\/     M anipulation  |                                                 |
\*---------------------------------------------------------------------------*/
FoamFile
{
    version     2.0;
    format      ascii;
    class       volScalarField;
    location    "0";
    object      nut;
}
// * * * * * * * * * * * * * * * * * * * * * * * * * * * * * * * * * * * * * //

dimensions      [0 2 -1 0 0 0 0];

internalField   nonuniform List<scalar>
1500
(
0.000622802
0.000614284
0.000604198
0.000594162
0.000584676
0.00057622
0.000569795
0.000566467
0.000566974
0.000571981
0.000582199
0.000597065
0.000615975
0.00063804
0.000660532
0.000681976
0.000701003
0.000622804
0.000614275
0.000604162
0.000594079
0.000584535
0.000576019
0.000569541
0.000566173
0.000566661
0.000571674
0.000581918
0.000596822
0.000615766
0.000637849
0.00066034
0.000681763
0.000700744
0.000622807
0.000614264
0.000604117
0.000593973
0.000584354
0.000575762
0.000569216
0.000565796
0.000566259
0.00057128
0.000581557
0.000596508
0.000615496
0.000637597
0.000660087
0.000681481
0.000700403
0.00062281
0.000614251
0.000604059
0.000593839
0.000584124
0.000575434
0.0005688
0.000565314
0.000565745
0.000570774
0.000581092
0.000596103
0.000615143
0.000637269
0.000659755
0.000681109
0.000699951
0.000622815
0.000614234
0.000603987
0.000593668
0.00058383
0.000575015
0.000568268
0.000564697
0.000565086
0.000570125
0.000580495
0.000595579
0.000614684
0.000636837
0.000659313
0.000680614
0.00069935
0.000622822
0.000614214
0.000603895
0.000593451
0.000583456
0.00057448
0.000567588
0.000563907
0.000564243
0.000569293
0.000579726
0.000594901
0.000614083
0.000636265
0.000658722
0.000679947
0.000698539
0.000622831
0.000614189
0.000603781
0.000593177
0.000582981
0.000573798
0.000566721
0.000562899
0.000563165
0.000568227
0.000578735
0.000594018
0.000613293
0.0006355
0.000657922
0.00067904
0.000697437
0.000622843
0.00061416
0.00060364
0.000592832
0.00058238
0.000572933
0.000565618
0.000561615
0.000561788
0.000566861
0.000577457
0.000592869
0.000612247
0.00063447
0.00065683
0.000677792
0.00069592
0.000622861
0.000614128
0.000603468
0.000592402
0.000581623
0.00057184
0.00056422
0.000559983
0.000560035
0.000565114
0.00057581
0.000591366
0.000610852
0.00063307
0.000655319
0.000676051
0.000693805
0.000622886
0.000614095
0.000603261
0.000591871
0.000580678
0.000570466
0.000562458
0.000557922
0.000557813
0.000562888
0.000573688
0.000589395
0.000608978
0.000631141
0.000653202
0.000673592
0.000690818
0.000622922
0.000614064
0.00060302
0.000591226
0.000579511
0.000568757
0.000560258
0.000555339
0.000555019
0.000560067
0.000570958
0.000586801
0.00060644
0.000628454
0.000650196
0.000670068
0.000686543
0.000622974
0.000614046
0.000602753
0.000590462
0.000578097
0.000566668
0.000557552
0.000552151
0.000551551
0.000556532
0.000567467
0.000583383
0.000602978
0.000624672
0.000645875
0.000664959
0.000680352
0.000623051
0.000614057
0.00060248
0.000589594
0.000576437
0.000564181
0.000554312
0.000548314
0.00054735
0.000552185
0.000563056
0.000578894
0.000598233
0.00061931
0.000639615
0.000657494
0.000671326
0.000623165
0.000614128
0.00060225
0.000588679
0.000574593
0.000561365
0.000550611
0.000543906
0.000542476
0.000547035
0.000557617
0.000573067
0.000591751
0.000611703
0.000630535
0.00064658
0.00065817
0.000623332
0.000614311
0.000602158
0.00058786
0.000572757
0.000558472
0.000546764
0.000539288
0.000537295
0.000541363
0.000551248
0.000565729
0.000583053
0.000601059
0.00061754
0.000630834
0.000639266
0.000716893
0.000730253
0.000742131
0.000753595
0.000765656
0.000778987
0.000793729
0.000809441
0.000825195
0.000839779
0.000851983
0.000860877
0.000866019
0.000867549
0.000866143
0.000862827
0.000716574
0.000729873
0.000741685
0.000753084
0.000765084
0.000778359
0.000793051
0.000808722
0.000824441
0.000838997
0.000851179
0.000860057
0.000865187
0.000866713
0.000865309
0.000862005
0.000716155
0.000729374
0.000741101
0.000752415
0.000764335
0.000777537
0.000792165
0.000807781
0.000823454
0.000837973
0.000850126
0.000858981
0.000864098
0.000865616
0.000864215
0.000860926
0.000715602
0.000728715
0.000740331
0.000751535
0.000763351
0.000776457
0.000791001
0.000806544
0.000822155
0.000836624
0.000848738
0.000857565
0.000862662
0.000864172
0.000862774
0.000859505
0.000714866
0.000727839
0.000739309
0.000750368
0.000762047
0.000775027
0.000789459
0.000804905
0.000820436
0.000834838
0.0008469
0.000855687
0.000860758
0.000862255
0.000860862
0.000857619
0.000713876
0.000726665
0.000737942
0.000748811
0.000760308
0.000773121
0.000787404
0.000802721
0.000818142
0.000832454
0.000844444
0.000853177
0.000858212
0.000859694
0.000858306
0.000855097
0.000712533
0.000725076
0.000736097
0.000746712
0.000757968
0.000770559
0.000784642
0.000799784
0.000815054
0.000829243
0.000841135
0.000849795
0.00085478
0.000856238
0.000854858
0.000851691
0.00071069
0.000722902
0.000733581
0.000743857
0.000754789
0.00076708
0.000780891
0.000795794
0.000810859
0.000824876
0.000836631
0.000845188
0.000850104
0.000851529
0.000850156
0.000847046
0.00070813
0.000719892
0.000730108
0.000739927
0.000750421
0.000762304
0.000775744
0.000790316
0.000805095
0.000818873
0.000830433
0.000838843
0.000843662
0.000845039
0.000843674
0.000840638
0.000704526
0.000715673
0.000725259
0.000734456
0.000744353
0.000755676
0.000768602
0.000782712
0.000797088
0.000810522
0.000821806
0.000830006
0.000834683
0.00083599
0.000834632
0.000831693
0.00069939
0.000709686
0.000718407
0.000726751
0.000735826
0.000746374
0.000758582
0.000772041
0.000785841
0.000798783
0.000809665
0.000817559
0.000822029
0.000823232
0.000821879
0.000819065
0.000691989
0.000701103
0.000708629
0.000715796
0.000723735
0.000733203
0.0007444
0.000756932
0.000769902
0.00078213
0.000792425
0.00079987
0.000804035
0.000805081
0.000803724
0.000801072
0.000681257
0.000688721
0.000694594
0.000700138
0.000706503
0.000714461
0.000724231
0.000735437
0.000747211
0.000758397
0.000767831
0.000774614
0.000778326
0.000779134
0.000777756
0.000775307
0.000665711
0.000670892
0.000674497
0.000677816
0.000682016
0.00068788
0.000695647
0.000704972
0.000715026
0.000724701
0.000732876
0.000738686
0.000741729
0.000742175
0.00074074
0.000738537
0.000643543
0.000645632
0.000646199
0.000646544
0.000647836
0.00065086
0.000655875
0.00066258
0.000670212
0.000677739
0.00068411
0.000688517
0.000690589
0.000690496
0.00068894
0.000687013
0.000858664
0.000854551
0.000851099
0.00084823
0.000845198
0.00084099
0.000834201
0.000824375
0.000812586
0.000799454
0.000785307
0.000770355
0.000754983
0.000739468
0.000723546
0.000706766
0.00068978
0.000857871
0.000853803
0.000850407
0.000847617
0.000844691
0.000840606
0.000833937
0.000824207
0.000812477
0.000799378
0.000785248
0.000770304
0.000754931
0.000739409
0.000723485
0.000706719
0.000689757
0.000856832
0.00085282
0.000849497
0.000846808
0.000844018
0.000840092
0.000833577
0.000823971
0.000812322
0.000799267
0.000785161
0.00077023
0.00075486
0.000739331
0.000723405
0.000706656
0.000689725
0.000855461
0.000851522
0.000848293
0.000845734
0.000843117
0.000839395
0.00083308
0.000823639
0.000812095
0.000799102
0.000785033
0.000770123
0.000754758
0.000739225
0.000723297
0.000706573
0.000689682
0.00085364
0.000849796
0.000846687
0.000844295
0.000841901
0.000838441
0.000832385
0.00082316
0.00081176
0.000798855
0.00078484
0.000769964
0.000754612
0.000739075
0.000723152
0.00070646
0.000689624
0.000851203
0.000847483
0.000844527
0.000842348
0.00084024
0.000837117
0.000831399
0.00082246
0.000811258
0.000798479
0.000784546
0.000769724
0.000754399
0.000738867
0.000722953
0.000706307
0.000689543
0.000847911
0.000844351
0.000841591
0.000839686
0.000837944
0.000835254
0.000829976
0.00082142
0.000810492
0.000797899
0.000784092
0.000769359
0.000754083
0.000738569
0.000722679
0.000706098
0.000689429
0.000843416
0.000840065
0.000837556
0.000836
0.000834726
0.000832593
0.000827891
0.000819851
0.00080931
0.000796992
0.000783384
0.000768794
0.000753608
0.00073814
0.000722295
0.000705808
0.000689266
0.000837207
0.000834129
0.000831941
0.00083083
0.000830151
0.000828734
0.000824789
0.00081745
0.000807463
0.00079556
0.000782265
0.000767911
0.000752882
0.000737508
0.000721749
0.000705401
0.00068903
0.000828528
0.000825808
0.000824027
0.000823479
0.000823555
0.000823054
0.000820107
0.000813732
0.000804548
0.000793281
0.000780486
0.000766518
0.000751763
0.000736569
0.000720965
0.00070482
0.000688685
0.000816258
0.000814005
0.000812736
0.000812894
0.000813921
0.000814586
0.000812956
0.000807917
0.000799913
0.000789634
0.000777641
0.000764308
0.000750021
0.000735153
0.000719819
0.000703982
0.000688172
0.000798743
0.000797097
0.000796464
0.000797498
0.000799703
0.000801836
0.000801944
0.000798768
0.000792519
0.000783779
0.000773077
0.000760786
0.000747292
0.000733
0.00071813
0.000702758
0.000687399
0.000773614
0.000772743
0.000772884
0.000774977
0.000778612
0.000782561
0.000784946
0.000784371
0.000780736
0.000774401
0.000765771
0.000755179
0.000743006
0.000729707
0.000715618
0.000700954
0.000686228
0.000737667
0.000737759
0.000738809
0.00074214
0.000747446
0.000753574
0.000758897
0.000761916
0.000762141
0.000759521
0.000754174
0.000746312
0.000736309
0.000724671
0.00071187
0.000698283
0.000684448
0.000687147
0.000688364
0.000690427
0.000695131
0.000702289
0.000710907
0.000719891
0.000727722
0.000733482
0.000736428
0.00073613
0.000732534
0.000725981
0.000717036
0.000706298
0.00069433
0.000681748
0.000623501
0.000614599
0.000602393
0.000587713
0.000571987
0.000556975
0.000544518
0.000536285
0.000533493
0.000536597
0.000545162
0.000557934
0.000573038
0.000588294
0.00060161
0.000611402
0.00061616
0.000623664
0.000614854
0.000602743
0.0005881
0.000572288
0.000557037
0.00054418
0.000535371
0.000531774
0.000533779
0.000540886
0.000551786
0.00056458
0.000577107
0.000587352
0.000593844
0.000595492
0.000623801
0.000615114
0.000603152
0.000588639
0.00057289
0.000557602
0.000544587
0.000535464
0.000531342
0.000532545
0.000538518
0.000547913
0.00055883
0.000569151
0.000576947
0.000580869
0.000580124
0.000623913
0.000615352
0.00060355
0.000589198
0.000573575
0.00055835
0.000545309
0.00053603
0.000531569
0.000532196
0.00053731
0.000545539
0.000554991
0.000563598
0.000569517
0.0005715
0.000568967
0.000624003
0.000615557
0.000603905
0.000589715
0.000574237
0.000559116
0.00054611
0.000536765
0.000532087
0.000532302
0.000536771
0.000544111
0.000552441
0.00055974
0.000564242
0.000564782
0.000560925
0.000624074
0.000615728
0.000604209
0.000590165
0.000574827
0.000559819
0.000546877
0.000537513
0.000532696
0.000532613
0.000536601
0.000543265
0.000550741
0.00055705
0.000560487
0.000559956
0.000555121
0.000624129
0.000615868
0.000604461
0.000590543
0.000575331
0.000560431
0.000547558
0.0005382
0.000533293
0.000532994
0.00053662
0.000542772
0.000549599
0.000555157
0.000557794
0.000556466
0.000550906
0.000624173
0.000615982
0.000604666
0.000590855
0.000575749
0.000560944
0.000548139
0.000538798
0.000533832
0.000533374
0.000536728
0.00054249
0.000548823
0.000553811
0.000555844
0.000553919
0.000547819
0.000624208
0.000616072
0.000604832
0.000591107
0.000576091
0.000561367
0.000548622
0.000539301
0.000534295
0.00053372
0.000536868
0.000542333
0.000548287
0.000552842
0.000554417
0.000552044
0.000545538
0.000624235
0.000616144
0.000604964
0.000591309
0.000576367
0.00056171
0.000549016
0.000539715
0.000534683
0.00053402
0.000537011
0.000542248
0.000547913
0.000552137
0.000553363
0.000550651
0.000543838
0.000624256
0.000616201
0.000605069
0.000591471
0.000576587
0.000561986
0.000549334
0.000540052
0.000535001
0.000534272
0.000537143
0.000542205
0.000547648
0.000551617
0.000552577
0.000549607
0.000542561
0.000624272
0.000616245
0.000605152
0.000591599
0.000576762
0.000562205
0.000549588
0.000540321
0.000535258
0.00053448
0.000537258
0.000542185
0.000547457
0.000551231
0.000551986
0.000548818
0.000541595
0.000624285
0.00061628
0.000605217
0.000591699
0.0005769
0.000562379
0.00054979
0.000540537
0.000535464
0.000534648
0.000537355
0.000542178
0.000547318
0.000550941
0.000551539
0.00054822
0.000540861
0.000624295
0.000616308
0.000605268
0.000591779
0.00057701
0.000562516
0.000549949
0.000540708
0.000535629
0.000534783
0.000537435
0.000542178
0.000547216
0.000550722
0.000551199
0.000547763
0.000540299
0.000624302
0.00061633
0.000605309
0.000591841
0.000577095
0.000562625
0.000550075
0.000540843
0.000535759
0.000534891
0.000537501
0.000542182
0.00054714
0.000550555
0.000550938
0.000547413
0.000539868
0.000616981
0.000615576
0.000612747
0.000609779
0.000607813
0.00060762
0.000609474
0.000613128
0.000617903
0.000622869
0.000627075
0.000629788
0.000630678
0.000629915
0.000628167
0.000626477
0.000593314
0.000588972
0.000583324
0.000577615
0.000572935
0.000570031
0.000569184
0.000570192
0.000572459
0.000575155
0.000577429
0.000578625
0.000578449
0.000577071
0.000575117
0.000573569
0.000575739
0.000569328
0.000561718
0.000554104
0.000547529
0.00054271
0.000539925
0.00053901
0.000539434
0.000540449
0.000541284
0.000541346
0.000540374
0.000538531
0.000536405
0.000534923
0.000562987
0.000555141
0.000546186
0.00053727
0.000529392
0.000523238
0.000519087
0.0005168
0.000515894
0.000515687
0.000515473
0.000514707
0.000513153
0.000510969
0.000508711
0.000507255
0.0005538
0.000544959
0.000535083
0.000525278
0.000516504
0.000509424
0.00050431
0.000501044
0.000499183
0.000498093
0.000497118
0.000495751
0.000493775
0.000491344
0.000488986
0.000487539
0.000547168
0.000537635
0.000527123
0.000516706
0.000507313
0.000499584
0.000493789
0.000489822
0.000487271
0.00048554
0.000484011
0.000482207
0.000479925
0.000477314
0.000474884
0.000473437
0.00054235
0.000532329
0.000521375
0.000510534
0.000500708
0.000492519
0.000486236
0.000481764
0.00047871
0.000476511
0.000474576
0.000472452
0.000469946
0.000467206
0.000464722
0.000463271
0.000538821
0.000528453
0.000517186
0.000506046
0.000495911
0.000487395
0.000480759
0.000475917
0.000472495
0.00046995
0.000467716
0.000465355
0.000462685
0.000459849
0.000457326
0.000455871
0.000536214
0.000525594
0.000514104
0.000502749
0.000492394
0.00048364
0.000476746
0.000471632
0.000467937
0.000465134
0.000462677
0.000460141
0.000457349
0.000454442
0.00045189
0.00045043
0.00053427
0.000523466
0.000511814
0.000500304
0.000489789
0.00048086
0.000473775
0.000468458
0.000464559
0.000461564
0.000458939
0.000456271
0.000453388
0.000450429
0.000447854
0.000446391
0.000532809
0.00052187
0.000510099
0.000498475
0.000487842
0.000478784
0.000471556
0.000466087
0.000462034
0.000458894
0.000456142
0.000453374
0.000450423
0.000447424
0.000444834
0.000443367
0.000531704
0.000520664
0.000508804
0.000497097
0.000486377
0.000477221
0.000469887
0.000464303
0.000460133
0.000456882
0.000454034
0.000451191
0.000448187
0.000445159
0.000442556
0.000441087
0.000530863
0.000519747
0.000507821
0.000496051
0.000485265
0.000476037
0.000468621
0.000462949
0.000458691
0.000455355
0.000452434
0.000449533
0.000446489
0.000443438
0.000440826
0.000439355
0.000530221
0.000519047
0.000507071
0.000495253
0.000484418
0.000475134
0.000467656
0.000461918
0.000457591
0.000454191
0.000451213
0.000448268
0.000445194
0.000442126
0.000439506
0.000438033
0.000529727
0.000518509
0.000506496
0.000494643
0.000483768
0.000474443
0.000466918
0.000461128
0.000456748
0.000453299
0.000450277
0.000447298
0.0004442
0.000441119
0.000438494
0.00043702
0.000627023
0.00062953
0.000633253
0.000640208
0.000650208
0.00066248
0.000675907
0.000689179
0.000700891
0.000709765
0.000714917
0.000716051
0.000713441
0.00070765
0.000699363
0.000689318
0.00067827
0.000574349
0.00057764
0.000583316
0.000592957
0.000606334
0.000622572
0.000640373
0.000658208
0.000674478
0.000687739
0.00069697
0.000701759
0.000702285
0.000699088
0.000692893
0.000684518
0.000674798
0.000535779
0.000539557
0.000546558
0.000558034
0.000573737
0.000592732
0.000613604
0.000634683
0.000654231
0.000670696
0.000682953
0.000690493
0.000693412
0.000692213
0.00068764
0.000680569
0.000671905
0.000508118
0.000512191
0.000520062
0.000532748
0.000549997
0.000570847
0.000593817
0.000617143
0.000638998
0.000657753
0.000672212
0.000681784
0.000686495
0.000686808
0.000683474
0.000677405
0.000669568
0.00048838
0.00049263
0.000501063
0.000514534
0.000532798
0.000554879
0.000579266
0.000604137
0.000627605
0.000647988
0.000664039
0.000675106
0.000681151
0.000682602
0.000680207
0.000674907
0.000667709
0.000474249
0.000478607
0.000487399
0.000501378
0.000520301
0.000543201
0.000568546
0.000594481
0.000619081
0.000640625
0.00065783
0.000669997
0.000677037
0.000679345
0.000677662
0.000672948
0.000666244
0.000464054
0.000468475
0.000477502
0.000491808
0.000511165
0.000534611
0.000560607
0.000587279
0.000612679
0.000635059
0.000653106
0.000666086
0.00067387
0.000676824
0.000675684
0.000671419
0.000665097
0.000456629
0.000461089
0.000470267
0.000484787
0.000504429
0.000528241
0.000554687
0.000581877
0.000607849
0.000630834
0.000649501
0.000663087
0.000671431
0.000674875
0.000674148
0.000670226
0.000664199
0.000451168
0.00045565
0.000464927
0.000479588
0.000499421
0.000523486
0.000550244
0.000577802
0.000604185
0.000627615
0.000646742
0.000660783
0.000669549
0.000673366
0.000672956
0.000669298
0.000663498
0.000447112
0.000451608
0.000460951
0.000475707
0.00049567
0.000519908
0.000546886
0.000574709
0.000601393
0.000625151
0.000644623
0.000659006
0.000668095
0.000672197
0.000672029
0.000668576
0.000662951
0.000444074
0.000448579
0.000457966
0.000472786
0.000492839
0.000517198
0.000544335
0.00057235
0.000599256
0.000623261
0.000642991
0.000657635
0.000666969
0.00067129
0.000671309
0.000668014
0.000662525
0.000441783
0.000446292
0.00045571
0.000470574
0.00049069
0.000515134
0.000542386
0.000570543
0.000597616
0.000621804
0.000641732
0.000656575
0.000666096
0.000670586
0.000670749
0.000667576
0.000662193
0.000440043
0.000444555
0.000453994
0.000468889
0.000489048
0.000513557
0.000540891
0.000569154
0.000596352
0.000620681
0.000640757
0.000655752
0.000665419
0.000670039
0.000670314
0.000667234
0.000661934
0.000438715
0.000443228
0.000452682
0.000467599
0.00048779
0.000512345
0.000539743
0.000568084
0.000595375
0.000619811
0.000640003
0.000655115
0.000664893
0.000669613
0.000669975
0.000666969
0.000661732
0.000437696
0.000442211
0.000451676
0.000466607
0.000486822
0.000511411
0.000538856
0.000567257
0.000594619
0.000619137
0.000639417
0.00065462
0.000664485
0.000669282
0.000669711
0.000666762
0.000661575
)
;

boundaryField
{
    topWall
    {
        type            nutLowReWallFunction;
        Cmu             0.09;
        kappa           0.41;
        E               9.8;
        value           uniform 3.00359e-19;
    }
    bottomWall
    {
        type            nutLowReWallFunction;
        Cmu             0.09;
        kappa           0.41;
        E               9.8;
        value           uniform 3.00359e-19;
    }
    inlet
    {
        type            cyclic;
    }
    outlet
    {
        type            cyclic;
    }
    defaultFaces
    {
        type            empty;
    }
}


// ************************************************************************* //
