0.448113 	-1.72434e-06 	1.33913e-06 	4.03757e-26
0.449383 	-0.0002053 	0.000159464 	5.15712e-24
0.452176 	-0.000620033 	0.000481597 	1.57888e-23
0.455479 	-0.00102664 	0.000798334 	1.70394e-23
0.459224 	-0.00135191 	0.0010536 	4.69657e-21
0.463359 	-0.00155893 	0.00121861 	1.0539e-20
0.467844 	-0.00167644 	0.00131557 	-7.7466e-21
0.472646 	-0.00174338 	0.00137454 	-9.13278e-21
0.477744 	-0.0017818 	0.00141254 	2.84788e-21
0.483125 	-0.00180193 	0.00143743 	6.32404e-21
0.488779 	-0.00180858 	0.00145295 	-9.8414e-22
0.494703 	-0.00180418 	0.00146106 	-1.17149e-21
0.500897 	-0.00178999 	0.00146283 	3.69355e-21
0.507363 	-0.00176659 	0.00145887 	-2.54142e-21
0.514105 	-0.00173413 	0.00144949 	-2.89743e-21
0.521128 	-0.00169249 	0.00143483 	2.70407e-23
0.52844 	-0.00164126 	0.00141488 	5.30469e-21
0.536045 	-0.00157986 	0.00138955 	-1.97775e-21
0.543953 	-0.00150748 	0.00135866 	-6.87287e-23
0.552171 	-0.00142314 	0.00132195 	2.27692e-21
0.560708 	-0.00132562 	0.00127913 	-3.89867e-21
0.56957 	-0.00121351 	0.00122985 	-4.99909e-21
0.578767 	-0.00108516 	0.00117373 	-1.4505e-21
0.588306 	-0.000938679 	0.00111034 	6.60257e-21
0.598196 	-0.000771902 	0.00103928 	7.33179e-21
0.608446 	-0.000582396 	0.00096011 	1.10452e-22
0.619062 	-0.000367441 	0.000872422 	-7.30589e-22
0.630053 	-0.000124037 	0.000775839 	-4.99893e-21
0.641426 	0.000151069 	0.000670054 	-1.47098e-21
0.653189 	0.000461298 	0.000554875 	-2.03276e-21
0.665349 	0.000810143 	0.000430281 	-5.95455e-21
0.677913 	0.00120109 	0.000296454 	6.13229e-21
0.690887 	0.00163748 	0.000153813 	1.32431e-21
0.704278 	0.00212238 	3.05009e-06 	6.61372e-22
0.718091 	0.00265843 	-0.000154851 	5.84408e-21
0.732332 	0.00324762 	-0.000318597 	-5.95373e-21
0.747006 	0.00389113 	-0.000486583 	-6.11382e-21
0.762118 	0.00458909 	-0.000656906 	4.9332e-21
0.777673 	0.00534038 	-0.000827398 	-3.97569e-22
0.793673 	0.00614248 	-0.000995686 	4.97366e-22
0.810125 	0.00699129 	-0.00115925 	-5.16569e-21
0.827029 	0.00788116 	-0.00131555 	5.62802e-21
0.84439 	0.00880478 	-0.0014621 	-3.57708e-22
0.862209 	0.00975345 	-0.00159662 	-8.22887e-22
0.88049 	0.0107173 	-0.00171718 	-5.63835e-21
0.899233 	0.0116856 	-0.00182224 	1.11973e-21
0.918439 	0.0126473 	-0.00191081 	1.15707e-20
0.938111 	0.0135917 	-0.00198249 	-5.77469e-21
0.958248 	0.0145089 	-0.00203749 	5.81155e-21
0.97885 	0.01539 	-0.00207655 	-5.45242e-21
0.999917 	0.0162283 	-0.00210094 	-3.53427e-22
1.02145 	0.017019 	-0.00211224 	5.96225e-22
1.04344 	0.0177593 	-0.00211226 	6.17552e-21
1.06589 	0.0184487 	-0.00210291 	-5.75796e-21
1.08881 	0.0190883 	-0.00208595 	-1.31224e-21
1.11217 	0.0196807 	-0.00206303 	-4.79256e-22
1.13599 	0.0202294 	-0.0020355 	-1.04057e-23
1.16025 	0.0207386 	-0.00200446 	-4.79453e-21
1.18495 	0.0212126 	-0.00197073 	5.18037e-21
1.21008 	0.0216557 	-0.00193491 	3.90324e-23
1.23564 	0.0220718 	-0.00189739 	-2.38023e-21
1.26161 	0.0224646 	-0.00185843 	4.97113e-21
1.288 	0.022837 	-0.0018182 	3.60501e-22
1.31477 	0.0231915 	-0.0017768 	1.04125e-22
1.34193 	0.0235306 	-0.00173433 	-1.0359e-22
1.36946 	0.0238557 	-0.00169088 	-2.37069e-21
1.39735 	0.0241685 	-0.00164654 	-1.89746e-23
1.42558 	0.0244699 	-0.00160142 	-1.49964e-24
1.45413 	0.0247609 	-0.00155567 	-2.86364e-22
1.48298 	0.0250422 	-0.00150943 	-1.93259e-22
1.51211 	0.0253145 	-0.00146286 	-1.74308e-21
1.54151 	0.025578 	-0.00141615 	2.16962e-21
1.57115 	0.0258334 	-0.00136946 	-7.1265e-23
1.60101 	0.0260807 	-0.00132294 	-1.8695e-22
1.63106 	0.0263203 	-0.00127678 	2.71993e-24
1.66127 	0.0265523 	-0.00123114 	1.91661e-24
1.69162 	0.0267772 	-0.00118613 	1.93069e-21
1.72209 	0.0269948 	-0.00114191 	2.68562e-22
1.75264 	0.0272054 	-0.00109857 	-3.3891e-21
1.78325 	0.0274091 	-0.0010562 	1.0666e-21
1.81388 	0.0276059 	-0.0010149 	-2.50679e-23
1.84451 	0.027796 	-0.000974719 	-5.21457e-22
1.8751 	0.0279794 	-0.000935709 	8.15594e-22
1.90563 	0.028156 	-0.000897907 	1.28822e-22
1.93607 	0.028326 	-0.000861336 	6.44404e-22
1.96638 	0.0284893 	-0.000826012 	-6.99147e-22
1.99654 	0.0286459 	-0.000791939 	-6.67777e-22
2.02651 	0.0287958 	-0.000759113 	6.36737e-22
2.05627 	0.028939 	-0.000727527 	1.72927e-22
2.08579 	0.0290755 	-0.000697164 	-5.08879e-24
2.11504 	0.0292053 	-0.000668007 	-5.07642e-23
2.144 	0.0293283 	-0.000640031 	4.87343e-22
2.17264 	0.0294446 	-0.000613211 	-4.34209e-22
2.20093 	0.0295542 	-0.00058752 	-4.67607e-22
2.22885 	0.0296571 	-0.000562927 	3.79217e-22
2.25639 	0.0297532 	-0.000539399 	-4.26355e-23
2.28351 	0.0298427 	-0.000516906 	-1.14693e-22
2.3102 	0.0299257 	-0.000495413 	-5.04479e-23
2.33644 	0.0300021 	-0.000474887 	8.73476e-23
2.36222 	0.0300721 	-0.000455292 	2.26062e-22
2.38752 	0.0301357 	-0.000436597 	-1.97749e-22
2.41232 	0.030193 	-0.000418764 	-5.864e-23
2.43662 	0.0302442 	-0.000401762 	2.49027e-23
2.4604 	0.0302892 	-0.000385557 	-9.39139e-23
2.48366 	0.0303283 	-0.000370115 	1.45993e-22
2.50638 	0.0303614 	-0.000355406 	1.39145e-22
2.52857 	0.0303886 	-0.000341398 	-1.04939e-22
2.55021 	0.03041 	-0.000328063 	-3.6665e-23
2.5713 	0.0304257 	-0.000315371 	-1.84951e-22
2.59184 	0.0304356 	-0.000303295 	3.73553e-23
2.61184 	0.0304399 	-0.00029181 	2.99695e-22
2.63128 	0.0304383 	-0.000280892 	-1.14333e-22
2.65017 	0.030431 	-0.000270517 	-8.08483e-23
2.66852 	0.030418 	-0.000260663 	-1.25634e-23
2.68633 	0.0303989 	-0.000251311 	-1.684e-24
2.7036 	0.0303739 	-0.00024244 	-7.54407e-23
2.72034 	0.0303426 	-0.000234034 	5.307e-24
2.73655 	0.0303049 	-0.000226074 	1.48109e-22
2.75225 	0.0302606 	-0.000218545 	-1.60425e-23
2.76743 	0.0302093 	-0.00021143 	-1.54998e-24
2.78211 	0.0301507 	-0.000204714 	2.08973e-23
2.79629 	0.0300844 	-0.000198381 	-4.80574e-23
2.80999 	0.0300099 	-0.000192414 	-5.06927e-23
2.82322 	0.0299266 	-0.000186796 	1.3904e-22
2.83598 	0.0298338 	-0.000181509 	-8.57448e-24
2.84828 	0.0297306 	-0.000176529 	-9.27036e-23
2.86014 	0.0296159 	-0.000171831 	-7.23098e-23
2.87157 	0.0294884 	-0.000167385 	3.35415e-23
2.88258 	0.0293463 	-0.000163154 	3.82797e-23
2.89317 	0.0291874 	-0.000159092 	1.78245e-23
2.90336 	0.0290085 	-0.000155141 	-4.5319e-23
2.91317 	0.0288057 	-0.000151226 	4.22827e-23
2.9226 	0.0285731 	-0.00014725 	1.18374e-22
2.93166 	0.0283026 	-0.000143087 	-6.11036e-23
2.94037 	0.0279826 	-0.000138569 	-6.61533e-23
2.94873 	0.0275965 	-0.000133479 	2.36596e-23
2.95675 	0.0271212 	-0.000127551 	1.93501e-23
2.96446 	0.0265265 	-0.000120492 	-7.14302e-23
2.97185 	0.025776 	-0.00011205 	-7.01151e-23
2.97893 	0.02483 	-0.000102101 	5.80686e-23
2.98571 	0.0236485 	-9.07389e-05 	4.3947e-23
2.99221 	0.0221893 	-7.82876e-05 	1.53554e-23
2.99843 	0.0204031 	-6.52297e-05 	1.27407e-23
3.00436 	0.0182339 	-5.20672e-05 	-1.95756e-23
3.01002 	0.0156586 	-3.92576e-05 	-4.74265e-24
3.01541 	0.01276 	-2.735e-05 	7.84789e-24
3.02051 	0.00972678 	-1.7027e-05 	-1.32027e-23
3.02532 	0.00674483 	-8.92061e-06 	-9.97366e-24
3.02915 	0.00434319 	-4.10334e-06 	-2.53114e-24
3.03133 	0.00298003 	-2.09587e-06 	-6.13172e-24
