0.458493 	0.000742149 	0.000576947 	-5.55308e-20
0.461294 	0.00227792 	0.00176931 	-2.1544e-20
0.464584 	0.00382709 	0.00296641 	1.69522e-19
0.468306 	0.00514094 	0.0039708 	-2.49224e-20
0.472411 	0.00604823 	0.00464877 	-8.07348e-20
0.476858 	0.00661883 	0.00505705 	-1.18447e-20
0.481616 	0.00699729 	0.0053101 	1.20364e-20
0.486667 	0.00727857 	0.00548273 	-9.39435e-21
0.491995 	0.00750909 	0.00561164 	3.72853e-21
0.497594 	0.00771073 	0.00571429 	-1.28219e-20
0.503459 	0.00789469 	0.00579963 	1.39317e-20
0.509592 	0.00806737 	0.00587273 	4.46255e-21
0.515995 	0.00823278 	0.00593668 	-6.13741e-21
0.522671 	0.00839362 	0.00599354 	-2.65541e-21
0.529627 	0.00855179 	0.00604471 	-3.36437e-21
0.536868 	0.00870875 	0.00609119 	7.98374e-21
0.544402 	0.0088656 	0.00613372 	-2.11974e-21
0.552236 	0.00902326 	0.00617286 	-9.68395e-23
0.560379 	0.00918245 	0.00620899 	3.75362e-21
0.568837 	0.00934382 	0.00624244 	3.27101e-21
0.57762 	0.00950789 	0.00627343 	5.49365e-21
0.586735 	0.00967515 	0.00630212 	-1.34e-20
0.59619 	0.00984601 	0.00632862 	5.14989e-21
0.605994 	0.0100209 	0.006353 	2.49114e-21
0.616154 	0.0102001 	0.00637528 	6.69383e-21
0.626678 	0.0103839 	0.00639547 	-1.03229e-20
0.637575 	0.0105727 	0.00641352 	5.18952e-21
0.648851 	0.0107668 	0.00642936 	-1.45227e-21
0.660514 	0.0109662 	0.00644292 	4.1435e-21
0.672571 	0.0111712 	0.00645407 	-5.23912e-21
0.685029 	0.0113822 	0.00646268 	8.88722e-22
0.697895 	0.0115991 	0.0064686 	7.21593e-21
0.711175 	0.011822 	0.00647164 	-5.4139e-21
0.724875 	0.0120513 	0.00647163 	-1.01381e-21
0.739001 	0.0122868 	0.00646836 	5.4084e-21
0.753557 	0.0125286 	0.00646162 	-5.49728e-21
0.768549 	0.0127768 	0.00645118 	6.63625e-22
0.783981 	0.0130312 	0.00643684 	6.19794e-21
0.799857 	0.0132919 	0.00641835 	-6.31303e-21
0.816181 	0.0135586 	0.00639549 	-1.32023e-21
0.832957 	0.0138314 	0.00636806 	-6.49342e-22
0.850188 	0.0141098 	0.00633585 	4.80579e-22
0.867876 	0.0143939 	0.00629867 	6.12305e-21
0.886023 	0.0146833 	0.00625637 	-6.81791e-21
0.904631 	0.0149776 	0.0062088 	-1.01736e-21
0.923702 	0.0152766 	0.00615586 	5.84373e-22
0.943237 	0.01558 	0.00609749 	5.12939e-22
0.963236 	0.0158872 	0.00603365 	-3.90557e-25
0.983699 	0.0161981 	0.00596434 	-5.01012e-22
1.00463 	0.016512 	0.00588965 	3.84728e-23
1.02602 	0.0168287 	0.00580965 	4.5595e-22
1.04787 	0.0171476 	0.00572451 	-8.9163e-22
1.07019 	0.0174684 	0.00563442 	-6.6528e-22
1.09296 	0.0177906 	0.00553963 	-4.72459e-21
1.11618 	0.0181137 	0.00544042 	6.47067e-21
1.13986 	0.0184374 	0.00533713 	7.78684e-22
1.16399 	0.0187613 	0.00523011 	4.77353e-21
1.18855 	0.019085 	0.00511976 	-5.81155e-21
1.21355 	0.0194081 	0.00500652 	-4.91662e-22
1.23898 	0.0197303 	0.00489079 	2.87738e-23
1.26482 	0.0200512 	0.00477306 	3.76468e-22
1.29107 	0.0203706 	0.00465376 	1.2154e-22
1.31772 	0.0206881 	0.00453335 	2.31805e-21
1.34476 	0.0210034 	0.00441229 	-2.32311e-21
1.37217 	0.0213163 	0.00429101 	2.12931e-22
1.39994 	0.0216264 	0.00416991 	1.62204e-22
1.42805 	0.0219334 	0.00404939 	-1.93877e-22
1.45649 	0.0222372 	0.00392981 	-1.85692e-22
1.48524 	0.0225372 	0.0038115 	-1.9183e-25
1.51427 	0.0228333 	0.00369474 	1.23177e-22
1.54357 	0.0231252 	0.00357979 	2.27352e-21
1.57311 	0.0234123 	0.00346686 	-2.23461e-21
1.60287 	0.0236946 	0.00335615 	-2.41454e-21
1.63283 	0.0239714 	0.0032478 	1.85289e-21
1.66296 	0.0242426 	0.00314192 	2.43111e-23
1.69323 	0.0245076 	0.00303859 	-2.02979e-21
1.72362 	0.0247661 	0.00293788 	3.99273e-21
1.75409 	0.0250178 	0.0028398 	-3.8925e-21
1.78463 	0.0252623 	0.00274437 	2.17406e-21
1.81519 	0.0254993 	0.00265157 	9.63703e-23
1.84575 	0.0257284 	0.00256138 	-9.2664e-22
1.87629 	0.0259493 	0.00247375 	1.36161e-21
1.90676 	0.026162 	0.00238866 	1.2132e-21
1.93714 	0.026366 	0.00230601 	-1.54469e-22
1.9674 	0.0265612 	0.00222578 	-3.36489e-22
1.9975 	0.0267475 	0.0021479 	-1.2317e-21
2.02743 	0.0269247 	0.00207229 	2.82781e-23
2.05714 	0.0270929 	0.00199889 	1.48435e-22
2.08662 	0.027252 	0.00192765 	1.3299e-22
2.11583 	0.0274021 	0.00185851 	2.49692e-23
2.14475 	0.0275432 	0.0017914 	-8.373e-22
2.17335 	0.0276753 	0.00172626 	1.87391e-21
2.20161 	0.0277987 	0.00166305 	-9.64145e-22
2.2295 	0.0279133 	0.00160171 	-1.4608e-22
2.257 	0.0280195 	0.0015422 	1.22133e-21
2.28409 	0.0281173 	0.00148445 	3.07345e-22
2.31075 	0.028207 	0.00142843 	-5.06821e-22
2.33697 	0.0282887 	0.0013741 	-1.30614e-21
2.36272 	0.0283626 	0.00132141 	3.85722e-22
2.38799 	0.028429 	0.00127031 	-3.25953e-22
2.41277 	0.028488 	0.00122078 	-3.07342e-22
2.43705 	0.0285397 	0.00117276 	1.90827e-22
2.46081 	0.0285844 	0.00112621 	3.91454e-22
2.48404 	0.0286222 	0.0010811 	-3.41036e-23
2.50675 	0.0286531 	0.00103739 	1.77288e-22
2.52891 	0.0286773 	0.00099504 	-4.0948e-22
2.55054 	0.0286949 	0.000954009 	1.13323e-23
2.57161 	0.0287059 	0.00091426 	-1.22358e-22
2.59214 	0.0287102 	0.000875755 	1.64506e-23
2.61212 	0.0287078 	0.000838454 	1.37094e-22
2.63155 	0.0286987 	0.000802317 	-4.0158e-24
2.65043 	0.0286827 	0.000767305 	7.40629e-23
2.66877 	0.0286595 	0.000733376 	2.08587e-22
2.68656 	0.028629 	0.000700489 	-2.14563e-22
2.70382 	0.0285909 	0.000668602 	6.02069e-24
2.72055 	0.0285446 	0.00063767 	3.06185e-22
2.73675 	0.0284899 	0.00060765 	1.05499e-22
2.75243 	0.0284262 	0.000578494 	-2.17897e-22
2.7676 	0.0283531 	0.000550156 	-3.23107e-22
2.78227 	0.0282698 	0.000522587 	-4.6993e-22
2.79644 	0.0281756 	0.00049574 	1.31433e-22
2.81014 	0.02807 	0.000469564 	5.28761e-22
2.82335 	0.0279522 	0.000444011 	5.24405e-22
2.8361 	0.0278214 	0.000419032 	-3.59468e-22
2.8484 	0.0276767 	0.00039458 	-1.61814e-22
2.86025 	0.0275174 	0.000370612 	-2.24627e-22
2.87167 	0.0273425 	0.000347088 	-1.28023e-22
2.88267 	0.0271513 	0.000323971 	2.02686e-22
2.89326 	0.0269425 	0.000301232 	-2.37141e-22
2.90345 	0.0267149 	0.000278847 	1.24372e-22
2.91325 	0.0264672 	0.000256802 	6.41294e-23
2.92267 	0.0261972 	0.00023509 	-5.29802e-23
2.93173 	0.0259022 	0.000213713 	-8.39035e-23
2.94043 	0.0255784 	0.000192684 	1.16398e-22
2.94878 	0.0252202 	0.000172031 	-2.13654e-23
2.95681 	0.0248196 	0.000151799 	-8.98661e-23
2.9645 	0.0243648 	0.000132054 	-1.27115e-22
2.97189 	0.0238379 	0.000112898 	-1.23073e-22
2.97896 	0.0232131 	9.44744e-05 	2.77427e-22
2.98575 	0.0224525 	7.69906e-05 	2.26045e-22
2.99224 	0.021503 	6.07231e-05 	1.2026e-22
2.99845 	0.0202942 	4.60178e-05 	2.55005e-22
3.00438 	0.0187377 	3.32574e-05 	1.26936e-22
3.01003 	0.0167392 	2.27539e-05 	-1.75009e-22
3.01541 	0.0142481 	1.46028e-05 	-7.96574e-23
3.02051 	0.0113305 	8.64667e-06 	1.30901e-24
3.02532 	0.00815784 	4.56811e-06 	-1.18235e-22
3.02983 	0.00490084 	1.99919e-06 	-6.24297e-23
3.034 	0.00163437 	5.22924e-07 	4.29135e-26
