0.0010258 	0.000370493 	7.70926e-07 	-2.45798e-22
0.00334978 	0.00117823 	3.91739e-06 	-4.54112e-22
0.00630145 	0.00203486 	1.08519e-05 	-3.79026e-22
0.00983054 	0.0027562 	2.16875e-05 	-3.55631e-22
0.0138765 	0.00325604 	3.55426e-05 	2.31809e-23
0.0183825 	0.00359411 	5.17832e-05 	-2.16517e-22
0.0233014 	0.00384404 	6.99908e-05 	-2.32353e-22
0.0285978 	0.0040463 	8.97756e-05 	-1.76703e-22
0.0342466 	0.0042206 	0.000110798 	-4.04443e-23
0.0402317 	0.00437705 	0.000132813 	3.83851e-22
0.046544 	0.00452137 	0.000155653 	9.32125e-22
0.0531797 	0.00465712 	0.000179203 	5.34659e-22
0.0601391 	0.00478672 	0.000203372 	-8.80264e-22
0.0674258 	0.00491189 	0.000228089 	1.23784e-22
0.0750453 	0.00503393 	0.000253295 	3.74572e-22
0.0830049 	0.00515384 	0.00027894 	7.87671e-24
0.0913134 	0.00527245 	0.00030498 	-2.92699e-22
0.0999802 	0.00539044 	0.000331376 	-2.93875e-22
0.109016 	0.00550838 	0.000358092 	2.54063e-23
0.11843 	0.00562678 	0.000385091 	8.10003e-22
0.128235 	0.00574609 	0.00041234 	-8.61616e-22
0.138442 	0.00586672 	0.000439805 	-3.59528e-23
0.149063 	0.00598905 	0.00046745 	-4.63506e-22
0.160109 	0.00611343 	0.000495242 	-4.26649e-22
0.171593 	0.00624021 	0.000523145 	3.96523e-22
0.183525 	0.00636969 	0.000551122 	-7.54065e-22
0.195919 	0.00650221 	0.000579137 	-3.75717e-21
0.208786 	0.00663806 	0.000607151 	2.69004e-21
0.222137 	0.00677756 	0.000635125 	7.07619e-22
0.235985 	0.00692101 	0.000663021 	3.06141e-22
0.25034 	0.00706869 	0.000690797 	1.2294e-21
0.265214 	0.00722093 	0.00071841 	3.7082e-21
0.280617 	0.007378 	0.000745821 	-3.5251e-21
0.29656 	0.00754021 	0.000772984 	-5.79793e-22
0.313054 	0.00770787 	0.000799858 	4.90109e-22
0.330107 	0.00788125 	0.000826399 	1.39473e-21
0.347729 	0.00806067 	0.000852564 	3.93116e-21
0.365928 	0.00824642 	0.00087831 	-4.95537e-21
0.384713 	0.0084388 	0.000903593 	-8.82346e-22
0.404089 	0.00863806 	0.000928371 	1.23831e-22
0.424065 	0.00884452 	0.000952601 	3.98348e-21
0.444646 	0.00905843 	0.000976252 	-4.41871e-21
0.465836 	0.00928005 	0.00099927 	-3.6603e-22
0.48764 	0.00950964 	0.00102163 	4.01418e-22
0.51006 	0.00974742 	0.0010433 	7.06282e-23
0.533099 	0.00999362 	0.00106423 	-5.74589e-22
0.556758 	0.0102484 	0.00108441 	-4.83518e-21
0.581036 	0.0105119 	0.00110379 	5.38075e-21
0.605933 	0.0107844 	0.00112237 	4.68314e-22
0.631446 	0.0110659 	0.00114011 	2.86005e-22
0.657571 	0.0113565 	0.001157 	-4.94385e-22
0.684304 	0.0116561 	0.00117302 	-5.46144e-22
0.711638 	0.011965 	0.00118816 	-2.3581e-22
0.739566 	0.0122828 	0.0012024 	-5.52122e-21
0.768079 	0.0126096 	0.00121575 	5.87905e-21
0.797167 	0.0129452 	0.00122818 	4.88797e-22
0.826818 	0.0132895 	0.00123971 	5.98127e-21
0.85702 	0.013642 	0.00125033 	-6.07e-21
0.887757 	0.0140024 	0.00126004 	5.90298e-21
0.919015 	0.0143705 	0.00126883 	-1.1947e-20
0.950776 	0.0147456 	0.0012767 	5.7583e-21
0.983022 	0.0151274 	0.00128366 	-6.17256e-21
1.01573 	0.0155151 	0.00128969 	6.24344e-21
1.04889 	0.015908 	0.0012948 	8.58476e-23
1.08246 	0.0163056 	0.00129898 	-1.53973e-23
1.11644 	0.0167069 	0.0013022 	6.15465e-21
1.15078 	0.0171111 	0.00130448 	-6.14798e-21
1.18548 	0.0175173 	0.00130577 	-4.38743e-23
1.22049 	0.0179245 	0.00130608 	-6.04325e-21
1.25579 	0.0183316 	0.00130536 	6.04244e-21
1.29136 	0.0187378 	0.00130359 	-5.90934e-21
1.32715 	0.0191419 	0.00130077 	5.96878e-21
1.36315 	0.0195428 	0.00129682 	1.24096e-22
1.39931 	0.0199396 	0.00129173 	8.96945e-23
1.43561 	0.0203309 	0.00128549 	-1.04156e-22
1.47202 	0.020716 	0.00127804 	-5.58888e-21
1.50849 	0.0210937 	0.00126939 	1.12564e-20
1.54499 	0.0214632 	0.00125949 	-1.26459e-23
1.5815 	0.0218235 	0.00124833 	-5.50135e-21
1.61797 	0.0221739 	0.00123593 	-7.31928e-23
1.65438 	0.0225138 	0.00122227 	-1.15569e-24
1.69068 	0.0228422 	0.00120737 	-7.91831e-23
1.72684 	0.0231589 	0.00119127 	1.18464e-23
1.76284 	0.0234633 	0.00117401 	4.88866e-21
1.79863 	0.0237551 	0.00115561 	-5.48813e-23
1.83418 	0.0240341 	0.00113615 	-4.89604e-21
1.86946 	0.0243001 	0.0011157 	-2.09204e-22
1.90445 	0.024553 	0.00109434 	8.51979e-23
1.9391 	0.0247929 	0.00107213 	-6.64561e-24
1.97339 	0.0250198 	0.00104919 	-2.02997e-21
2.00729 	0.0252339 	0.0010256 	2.20307e-21
2.04077 	0.0254353 	0.00100145 	5.7645e-23
2.07381 	0.0256243 	0.000976858 	-1.51804e-22
2.10639 	0.0258011 	0.000951898 	1.72142e-22
2.13848 	0.0259661 	0.000926673 	2.95573e-22
2.17005 	0.0261196 	0.000901272 	5.24918e-23
2.2011 	0.0262618 	0.00087578 	-1.8144e-21
2.23159 	0.0263931 	0.000850281 	3.2614e-21
2.26152 	0.0265139 	0.000824848 	-1.72569e-21
2.29087 	0.0266245 	0.000799552 	-1.05878e-22
2.31963 	0.0267251 	0.000774458 	1.75966e-21
2.34778 	0.0268161 	0.00074962 	-1.15673e-21
2.37531 	0.0268979 	0.000725092 	1.32059e-21
2.40222 	0.0269706 	0.000700918 	-1.25597e-21
2.42849 	0.0270345 	0.000677137 	1.32729e-21
2.45413 	0.0270898 	0.000653784 	-1.31234e-21
2.47913 	0.0271368 	0.000630885 	-1.00628e-21
2.50348 	0.0271754 	0.000608464 	-2.20659e-22
2.52719 	0.0272059 	0.000586539 	7.37166e-22
2.55026 	0.0272283 	0.000565122 	8.41357e-23
2.57268 	0.0272425 	0.000544224 	1.01432e-22
2.59446 	0.0272485 	0.000523849 	8.23836e-22
2.61561 	0.0272461 	0.000503997 	-6.56388e-22
2.63613 	0.0272351 	0.000484667 	-5.98898e-22
2.65602 	0.0272153 	0.00046585 	-1.18777e-22
2.67529 	0.027186 	0.000447535 	1.4701e-22
2.69396 	0.0271469 	0.00042971 	-4.52921e-22
2.71202 	0.0270973 	0.000412353 	8.23782e-22
2.72949 	0.0270364 	0.000395444 	7.42554e-23
2.74638 	0.0269633 	0.000378953 	-9.57152e-22
2.7627 	0.026877 	0.000362848 	4.69367e-22
2.77846 	0.0267763 	0.000347094 	3.49721e-22
2.79367 	0.02666 	0.000331648 	2.42479e-22
2.80835 	0.0265267 	0.000316464 	-3.20585e-22
2.8225 	0.026375 	0.000301492 	-6.42078e-22
2.83614 	0.0262034 	0.00028668 	5.5417e-22
2.84927 	0.0260107 	0.000271973 	1.19166e-22
2.86193 	0.0257955 	0.000257318 	-6.14711e-22
2.87411 	0.0255565 	0.000242667 	3.2088e-22
2.88582 	0.0252925 	0.000227974 	6.8155e-22
2.89709 	0.0250025 	0.000213206 	8.09426e-23
2.90793 	0.0246852 	0.000198339 	-4.72897e-22
2.91834 	0.0243391 	0.000183361 	5.90657e-23
2.92834 	0.023962 	0.000168276 	8.15105e-23
2.93795 	0.0235508 	0.0001531 	4.00771e-22
2.94717 	0.0231009 	0.000137866 	-2.27188e-22
2.95601 	0.0226048 	0.000122622 	-2.0593e-22
2.96448 	0.0220514 	0.00010744 	1.6251e-22
2.9726 	0.0214236 	9.24177e-05 	-3.16625e-22
2.98037 	0.0206949 	7.76916e-05 	-1.61116e-22
2.9878 	0.0198249 	6.34525e-05 	2.73049e-22
2.99488 	0.0187534 	4.99639e-05 	3.1737e-22
3.00163 	0.0173935 	3.75792e-05 	2.34171e-23
3.00802 	0.0156315 	2.67195e-05 	-6.24827e-23
3.01405 	0.0133594 	1.77184e-05 	1.20511e-22
3.01971 	0.0105849 	1.06993e-05 	1.01475e-22
3.02495 	0.00751121 	5.61793e-06 	2.26852e-24
3.02973 	0.00441813 	2.32873e-06 	3.81608e-24
