/*--------------------------------*- C++ -*----------------------------------*\
| =========                 |                                                 |
| \\      /  F ield         | OpenFOAM: The Open Source CFD Toolbox           |
|  \\    /   O peration     | Version:  v1912                                 |
|   \\  /    A nd           | Website:  www.openfoam.com                      |
|    \\/     M anipulation  |                                                 |
\*---------------------------------------------------------------------------*/
FoamFile
{
    version     2.0;
    format      ascii;
    class       volScalarField;
    location    "10000";
    object      k;
}
// * * * * * * * * * * * * * * * * * * * * * * * * * * * * * * * * * * * * * //

dimensions      [0 2 -2 0 0 0 0];


internalField   nonuniform List<scalar> 
71770
(
0.000507885
0.000536685
0.000592852
0.000715298
0.000800263
0.000798326
0.000801037
0.000798358
0.000763624
0.000720328
0.000893497
0.00131376
0.000497752
0.000521806
0.000502983
4.66725
3.67483
0.000295218
0.00140581
0.0151782
0.005083
9.84114e-05
9.60134e-05
0.040056
0.906119
0.459149
1.62988
0.217024
0.0964717
2.60444
0.000295354
0.00140939
0.00509672
0.0152195
8.24231
6.71624
6.20289
6.30298
6.83578
7.25861
7.6045
6.9065
7.33531
7.68947
7.73137
6.37239
7.90376
7.99603
8.05122
4.70371
3.69997
5.54147
4.73837
5.58468
5.62606
6.25697
6.78139
7.1942
7.53173
4.77872
5.69929
4.85866
7.36682
6.93431
6.40565
7.28917
0.461544
0.910997
1.63915
1.65533
0.920964
2.62047
2.64307
2.68028
8.27321
8.21474
8.17425
8.15991
3.72834
3.76861
3.85292
8.33034
7.31619
6.89235
7.68449
6.88461
7.27649
8.01726
7.95367
7.6258
7.6026
7.90611
7.62023
7.88969
7.90677
0.225933
1.74752
0.00512291
0.040756
0.0981501
0.100491
0.237139
0.500112
0.98095
0.0417355
2.75983
0.00141655
0.000300398
9.71802e-05
0.00143403
0.00518598
0.015486
0.000308187
0.00146882
0.00531115
0.0158593
5.75666
5.06569
4.96815
4.11314
4.23833
4.00498
6.93858
5.19595
5.8265
6.41665
5.94555
6.50875
1.03439
1.82536
2.85063
1.89157
2.92626
3.02587
1.96759
0.252443
0.530638
0.0438593
0.105567
0.0467891
0.112549
1.08015
1.12822
3.13178
3.93846
2.04476
1.17598
0.000101703
0.000110685
0.00154418
0.00558255
0.0166686
0.000324875
0.000128999
0.00595773
0.000369602
0.00627591
0.0017374
0.000142046
0.00164884
0.00034941
0.0177863
0.0492786
0.018735
0.124156
0.118494
0.265511
0.556776
0.27814
0.582793
0.129745
0.290591
0.608463
0.00181994
0.00657558
0.0516343
0.0196303
0.000143543
0.000385941
0.000402263
0.000145634
0.00190168
0.0539627
0.0558206
0.13421
0.00687212
0.0205158
0.00710854
0.0212221
0.0019668
0.000415116
7.0296
6.62442
7.14165
5.31993
5.42912
4.34907
6.07206
6.19395
6.74815
7.34519
7.43238
4.4384
3.28717
0.667749
0.73946
2.23656
1.28958
1.41481
2.10821
0.30056
0.629105
1.21469
3.22123
0.000146663
0.64123
1.23882
2.151
0.306202
0.136687
0.318869
0.0568415
0.0216085
0.00723754
0.000142844
0.000421039
0.00200196
0.0591884
0.142334
0.0661333
0.354975
0.158857
0.00753584
0.0225003
0.00208369
0.000138886
0.000435946
7.35997
6.97028
7.83829
7.63081
7.68219
7.18923
5.61879
6.69032
6.40533
7.27554
6.61165
5.8869
5.84649
4.59859
8.15377
7.95812
2.42142
0.793506
2.51491
1.49703
3.41168
3.64136
3.71084
4.85205
4.86872
7.61781
7.93439
8.17455
7.94534
8.20162
7.59519
6.4203
7.10556
8.3748
0.384098
1.84939
4.31478
3.0211
0.998416
0.487835
5.48912
0.0251518
0.00842561
0.000166887
0.00049031
0.00233071
0.000545288
0.000226624
0.172589
0.0719737
0.0273913
0.0919275
0.220088
0.00917915
0.00254276
0.0350053
0.011732
0.218142
0.466916
0.0969676
0.220763
0.477399
0.939928
1.68455
0.0402619
0.0152978
6.38496
4.92645
5.74707
7.67348
8.03032
8.31809
9.54776e-05
0.000296616
0.00140832
6.1169
6.73031
5.33342
4.34675
0.0446123
0.0149898
0.00417127
0.000941566
0.000573773
0.276156
0.116581
1.18257
0.599307
2.0795
3.20417
0.00369241
0.00324741
0.000688167
0.000254004
24.1571
26.5304
18.27
27.9896
26.5245
10.5212
22.0714
27.8136
29.5012
25.3351
27.7465
10.8399
19.0484
29.2454
30.4124
29.9948
26.7131
28.8866
25.8265
10.9521
12.3093
21.4733
29.7157
31.2809
30.971
27.0242
29.3323
26.3868
25.8094
11.0336
14.0523
26.9122
31.2121
31.564
31.4109
30.2738
31.0261
28.1488
28.8342
30.0864
27.5828
26.4232
25.708
14.4671
29.1492
31.1883
31.336
30.9615
31.1732
30.6237
30.8309
29.1282
30.2713
28.2215
27.4002
26.2234
25.6092
12.8254
24.114
31.7117
31.7184
30.4664
30.5945
30.1832
30.5074
30.5689
29.583
30.0675
30.3895
28.1628
27.6427
27.1292
26.1119
25.6927
12.5473
26.5142
31.4327
30.9381
28.867
29.8539
28.3225
30.4237
29.8256
30.1495
29.2863
30.1686
30.3291
28.9221
28.6789
27.2546
26.2233
25.7114
18.9786
10.4471
26.2456
32.4391
29.3133
31.4654
26.961
28.1055
26.5871
30.1996
29.1638
29.5599
29.5728
30.2377
30.2627
29.2142
27.8253
27.1895
26.3791
25.8238
18.5058
10.09
31.0377
28.1727
29.8362
24.8672
26.718
24.6148
29.808
27.8542
29.233
30.2045
30.1639
29.3878
28.7759
27.5226
26.3518
26.3881
26.217
24.4847
13.648
31.4842
25.8795
28.8343
22.7331
24.2936
26.9157
25.0622
24.191
22.9846
29.4956
27.2477
28.1116
30.157
30.2618
29.9409
29.93
29.0586
28.3238
27.1371
26.8008
25.9743
21.1748
30.4599
12.9279
30.1384
23.8957
25.298
20.7481
21.5569
25.3537
24.2323
22.0462
21.4469
28.5662
26.0869
27.7242
30.164
30.0912
29.9138
29.5915
28.9612
28.0885
27.7221
26.6294
26.2729
15.1597
27.5022
33.1712
29.1207
21.6024
23.8044
20.12
18.8793
25.1034
22.9042
21.4177
19.1915
27.9881
25.8368
26.7478
29.8867
30.1217
29.7474
29.381
28.5835
28.2974
27.5908
26.8992
26.2485
12.2844
26.9848
30.6976
25.8785
19.132
20.6641
17.9486
16.9832
24.0302
22.7851
19.8535
17.7323
26.6673
28.3826
24.7909
29.8386
30.0336
29.857
29.1944
29.3007
29.1223
28.8336
28.2272
27.8757
26.9073
26.5303
17.5998
29.6209
30.9983
24.2034
16.9715
18.4688
18.7276
14.7303
24.0134
21.8267
19.5339
18.425
15.6343
25.8099
27.8472
24.6889
30.0381
30.054
29.7498
28.5695
29.81
29.3003
28.8969
28.3113
28.09
27.1733
26.4588
16.2523
30.4111
27.3802
20.6266
14.4363
15.3452
15.8881
13.1907
13.9839
23.2385
22.1858
20.3773
17.8364
17.141
14.7295
25.8105
26.8712
23.4953
29.9445
29.5252
29.8398
28.7082
29.8654
29.7203
29.4229
29.1428
28.7248
28.1773
27.0823
26.5265
23.6979
11.3413
28.6131
26.108
18.2397
13.5209
12.3732
10.5547
11.1937
20.9297
19.7666
17.2929
15.9225
13.3732
24.4849
26.8363
23.3599
29.4758
29.7371
27.9789
29.8406
29.7242
29.3533
28.7265
29.2928
28.3673
27.9132
27.1529
26.7321
23.9001
10.9438
28.525
21.083
13.7832
10.6267
8.95726
9.42052
8.67662
10.5273
20.7632
18.8082
17.9746
15.9503
14.8491
11.9622
13.5619
24.0959
26.2465
21.8256
29.0318
29.799
28.1281
29.7361
29.6626
29.3728
29.6117
28.8378
28.124
27.9356
27.3331
26.7705
17.1087
28.185
8.15363
22.432
18.465
11.5477
8.57874
5.87723
6.90181
6.28913
8.4495
19.0488
16.8181
14.9946
15.6853
10.3465
12.7092
22.4884
24.731
25.5449
26.8953
21.5465
28.9448
29.7029
27.5835
29.766
29.3496
29.5084
29.6927
29.2857
28.5648
28.3506
28.0998
27.0811
18.5071
26.2188
5.51009
19.1099
14.017
6.71451
5.19868
2.89637
4.75223
5.61826
6.02429
4.73316
6.90019
8.614
18.4206
16.8896
13.4628
14.5033
10.9547
21.8991
24.1434
25.1679
26.5499
20.2176
28.2117
29.4546
29.445
29.5115
29.5688
29.6982
29.5118
28.803
28.4464
28.3329
27.5046
26.9739
15.5985
27.4069
8.32252
19.0074
11.8648
10.3787
6.17197
3.21216
1.32147
1.972
3.71902
4.06911
2.71659
5.3002
7.15467
18.8996
16.146
13.2166
14.5976
10.16
20.3034
22.9408
25.4532
26.8206
28.0671
29.166
29.4242
29.3909
29.5834
29.2316
28.9712
28.273
28.9803
27.4492
27.4386
27.0071
17.5022
24.4149
23.1546
6.86317
12.0853
8.15056
3.56659
1.70955
0.544904
1.23665
2.38088
3.17412
3.7073
5.50993
7.31103
17.5003
16.5498
11.7692
13.5725
8.65995
19.8184
22.7102
24.9626
26.2589
27.6129
28.5335
29.2309
29.4262
29.4137
29.3349
28.6721
29.386
28.2423
28.0102
27.4531
27.2522
13.0165
25.9287
21.6476
8.8421
10.7727
4.18709
1.22191
3.03792
0.749865
0.331001
0.549644
0.334124
1.18811
1.61174
2.56496
3.9973
6.53004
17.6025
15.7374
11.6832
13.9918
8.22159
20.3104
18.4215
23.7983
21.3041
25.6718
26.6986
27.4643
28.0216
28.7855
29.3372
29.4633
29.3556
28.9873
29.4403
28.3723
28.1035
27.7335
27.2968
18.8084
23.9478
15.3228
6.12034
4.81519
2.38064
0.372192
1.11669
0.46897
0.263883
0.312768
0.252907
0.66355
1.16631
1.57839
2.78368
4.16941
5.09285
16.1597
10.1874
12.8887
8.47953
18.3435
23.4576
21.3048
25.4458
26.2359
28.1442
28.5528
28.8687
29.285
29.304
29.0117
29.2937
29.3183
28.8076
28.5284
28.3321
27.7742
27.4594
18.5412
23.921
11.7615
6.023
5.9623
1.7342
0.589807
0.223185
0.306197
0.3108
0.274991
0.321441
0.384771
0.554071
0.849843
1.9602
3.43729
4.93299
15.7309
10.2353
11.2643
14.0374
7.41675
17.7795
22.3775
24.4664
20.4717
26.529
27.5421
27.7811
28.5267
28.8383
29.2384
28.9723
28.9241
28.5783
28.4553
28.3298
27.9537
27.684
12.1865
22.1689
16.1042
2.70925
0.527502
0.291697
0.253673
0.292726
0.318563
0.330862
0.318105
0.314913
0.421383
0.488781
1.10548
2.35161
3.90236
5.74188
16.4778
8.6467
10.4354
13.7084
18.0581
22.2286
24.2231
19.0469
21.1433
26.0168
27.41
27.7962
28.5719
28.9065
29.1707
29.1746
28.9195
28.7925
28.5877
28.5609
28.1381
27.663
12.3927
22.7534
14.8656
7.34322
0.682515
0.274684
0.150554
0.236992
0.322701
0.270695
0.32777
0.325902
0.327406
0.306079
0.298018
0.378338
0.680423
1.69295
3.74548
5.00603
15.5189
8.53056
10.9247
12.746
16.2706
23.0474
25.1187
18.4713
20.8071
26.5646
27.2272
27.9452
28.613
28.9632
29.0957
28.9525
28.8282
28.604
28.0887
27.8118
7.27798
18.4649
18.8887
5.93443
0.368282
0.26905
0.261777
0.272764
0.286746
0.319733
0.314757
0.311374
0.322222
0.258676
0.286447
0.298424
0.446269
0.89154
2.22396
5.34117
7.30427
10.0586
12.926
16.1875
23.0168
24.9511
19.4442
17.4607
21.9383
26.0499
26.3798
27.294
27.6855
28.6502
28.0709
28.7723
29.1007
29.0782
28.7496
28.9918
28.6132
28.2198
27.8266
6.77154
19.3489
19.8333
13.3793
2.07041
0.30077
0.112375
0.250041
0.264219
0.304403
0.195888
0.346675
0.258282
0.256665
0.316557
0.216377
0.334539
0.28072
0.360578
0.417724
1.90831
4.40905
7.47329
8.63709
11.5763
13.8827
15.2198
24.325
18.7891
17.4184
22.0082
25.7645
26.2074
26.6269
28.2406
27.7305
28.8865
28.2923
29.0199
28.933
29.0452
28.8011
28.6116
28.1879
27.9985
9.70724
16.8138
13.3963
1.44979
0.26883
0.191226
0.236233
0.233632
0.166865
0.176531
0.324779
0.233805
0.21854
0.299428
0.157881
0.348642
0.337509
0.286209
0.406222
0.492225
0.872736
2.56631
3.37272
5.87829
8.7529
11.6748
13.1064
16.1682
24.663
19.2788
23.1488
20.9084
25.9467
26.1892
26.9108
28.4743
28.0779
28.8722
28.9342
28.866
28.7387
28.9615
28.6263
28.3371
28.0009
6.69472
17.7495
6.92262
16.6806
0.293053
0.229456
0.159969
0.179775
0.18502
0.119361
0.119147
0.300977
0.170373
0.167084
0.237749
0.125719
0.326552
0.34775
0.276694
0.403489
0.521861
0.905764
2.06826
3.25893
5.33945
7.62397
10.889
13.378
16.0199
24.1339
18.4896
22.7195
21.4889
24.8301
25.2976
26.6286
28.4594
27.3146
28.7866
28.7085
28.9084
29.0148
28.8336
28.7328
28.3078
28.0819
10.9537
8.55049
14.952
0.234314
0.0486287
0.0991099
0.123187
0.114804
0.0937754
0.101632
0.296784
0.146557
0.131663
0.19217
0.103338
0.303592
0.338818
0.344615
0.284104
0.298706
0.329351
1.41756
0.613267
3.57653
5.79686
7.94903
11.7695
14.6276
17.0996
19.4234
23.5389
20.9894
24.5698
24.8773
25.455
27.7743
27.0644
28.4575
28.2534
28.921
28.8856
28.8735
28.7639
28.2942
28.3701
28.2354
9.49817
5.52613
15.2664
0.201181
1.20022
0.188902
0.0850493
0.0913581
0.108866
0.0794437
0.0825814
0.0895609
0.243277
0.112734
0.115092
0.146172
0.0936999
0.313922
0.245433
0.356599
0.340657
0.290017
0.294013
0.410248
0.294977
1.42554
0.811681
2.7533
4.86983
9.39188
5.97608
11.3899
14.8348
16.5628
18.7794
23.5207
21.6342
25.158
27.6147
26.0664
27.9949
28.4793
28.8444
28.6527
28.988
28.9997
28.6835
28.686
28.5415
28.2608
11.8802
4.453
8.77594
15.2553
0.126671
0.233038
0.170082
0.0729001
0.0769768
0.0726585
0.0634717
0.0732236
0.072873
0.0773521
0.104985
0.103129
0.135069
0.085823
0.265009
0.225832
0.34774
0.321731
0.305145
0.321743
0.29165
1.82891
0.666608
3.65228
8.89365
5.79723
12.4738
14.1704
17.401
19.6773
22.8229
20.9503
24.0407
26.5924
25.9039
27.3381
28.0338
28.8102
28.0624
28.8502
28.9785
28.8516
28.8348
28.5113
28.3193
11.0564
3.03396
5.56419
13.4153
0.0922092
0.861918
0.182153
0.110088
0.0558701
0.0677555
0.0572693
0.0523851
0.0537739
0.0540412
0.0691444
0.0965626
0.0983973
0.108703
0.145466
0.0733343
0.0860149
0.260615
0.166255
0.364003
0.326495
0.299828
0.297252
0.377126
1.53795
0.819257
3.20059
7.08988
10.7041
4.00772
12.0261
14.8899
17.2039
18.9381
23.0383
21.847
23.6114
26.3763
25.1247
27.3393
28.5874
27.6131
28.5854
28.977
28.912
28.8285
28.5495
28.5666
28.44
10.5899
5.61887
7.84801
12.6016
0.0832853
0.18974
0.0768629
0.0424787
0.0508686
0.0439622
0.0377018
0.0462276
0.0441887
0.0538272
0.0916643
0.0948649
0.104945
0.115132
0.0634007
0.0744628
0.201036
0.158197
0.353749
0.299979
0.311108
0.299899
0.266583
1.93807
0.484918
6.8829
10.8815
3.70341
13.7051
16.3581
19.4585
21.9806
24.0851
25.2287
27.0484
27.9496
27.5556
28.2364
28.9515
28.9097
29.006
28.904
28.8389
28.7299
28.5303
0.000291095
6.6026
5.20934
11.8998
0.613956
0.121223
0.0537035
0.030763
0.0385065
0.0352169
0.0373504
0.0278918
0.034719
0.0314094
0.0456336
0.0863903
0.0886723
0.0963105
0.110535
0.0509954
0.066094
0.0751254
0.198612
0.122674
0.361228
0.240755
0.328971
0.311797
0.220005
1.62579
0.588756
8.33131
5.02417
12.8175
9.91158
2.42122
14.0019
16.7675
18.2981
21.0575
0.000356169
23.054
25.0281
26.462
27.6709
26.5643
28.3156
28.729
28.8974
28.9674
28.9248
28.9439
28.6661
0.000254075
5.14785
7.11035
7.0249
11.5754
0.133644
0.118746
0.0432431
0.0234803
0.0303443
0.0249083
0.0253048
0.0209654
0.0304228
0.0321289
0.0255569
0.0375369
0.0817246
0.0946793
0.101262
0.0451583
0.0520853
0.0717101
0.148536
0.123042
0.358029
0.22279
0.314184
0.297598
0.240066
1.06406
0.266806
7.87131
5.00547
13.2428
10.7996
2.43546
15.5911
18.6797
21.5416
23.5643
25.7138
26.2299
27.1168
26.3046
27.699
28.1931
28.7591
29.0581
28.966
29.0262
28.817
28.7337
4.19613
5.47147
10.5156
0.0820674
0.0730228
0.0992439
0.0369522
0.0303637
0.0182648
0.0212279
0.0186226
0.0200112
0.0165847
0.0230875
0.0254908
0.0207026
0.0332374
0.0842973
0.0954473
0.0376651
0.0480157
0.0630321
0.147951
0.10733
0.36392
0.174516
0.271458
0.371117
0.25934
1.08667
0.356443
6.61486
9.60845
3.68181
12.1873
14.5736
1.61008
15.8533
17.3603
20.4008
23.1903
25.2558
27.1346
25.6292
27.7702
27.7385
28.2625
28.8745
28.9459
29.0768
28.868
28.9097
28.7745
5.64552
6.50501
9.68481
0.0964231
0.027911
0.10772
0.0472955
0.0238219
0.0219609
0.0165248
0.0174894
0.0148902
0.0139493
0.0136847
0.0202791
0.0217193
0.0262457
0.0840859
0.096977
0.0366637
0.0502684
0.0618724
0.119713
0.0997639
0.361129
0.172756
0.26382
0.344684
0.24603
0.627137
0.18299
6.41338
10.2234
4.25849
12.9358
14.7055
1.62261
17.4176
20.8117
24.2626
21.8898
26.6505
25.4689
24.8889
27.475
27.7679
28.0186
28.7762
28.9071
28.9796
28.9844
29.0215
28.9013
28.8393
4.41491
3.60359
10.0684
0.285291
0.0921792
0.0307317
0.0191004
0.0152111
0.0129861
0.0127633
0.0128669
0.0109847
0.0119872
0.0160325
0.0182505
0.0233701
0.0776149
0.0929647
0.0325961
0.0400527
0.0479365
0.0685457
0.116455
0.0964036
0.345674
0.132787
0.209083
0.300536
0.374091
0.298399
0.644457
0.230613
7.59664
9.72516
12.484
3.52161
15.958
1.02017
2.0819
18.3147
20.2542
24.0801
21.4598
26.8339
25.767
24.449
26.9403
27.3193
28.4327
28.6681
28.646
29.0111
29.0019
29.0142
28.9676
1.52488
5.91062
2.91743
9.25587
7.06898
0.0141576
0.0389977
0.0917426
0.0215003
0.012532
0.0127706
0.0105821
0.0103005
0.0101556
0.00816914
0.0121829
0.00995849
0.0139861
0.0193949
0.0149001
0.0242638
0.0822474
0.0350137
0.0280015
0.0405438
0.0456342
0.0643166
0.103103
0.0963242
0.361859
0.130585
0.208492
0.268117
0.373544
0.255282
0.260661
7.53588
11.0018
13.8941
3.95527
16.1094
0.917263
1.73312
19.508
17.4812
22.8419
21.7015
26.4966
25.1673
23.8216
26.7005
27.1916
28.3321
28.4532
28.4043
29.009
29.0414
29.0587
29.1544
29.0496
1.33202
3.73353
3.41558
9.24253
6.253
0.0920431
0.0200704
0.115673
0.0179629
0.00997028
0.0115132
0.00739895
0.00902083
0.00776439
0.00726901
0.00664262
0.00942418
0.012313
0.0165678
0.0131121
0.0205973
0.074479
0.0281746
0.0317049
0.0565955
0.0364501
0.10076
0.090417
0.353749
0.144787
0.115249
0.172417
0.270047
0.363226
0.266799
0.383868
6.64521
10.0384
13.1825
15.6489
2.34308
4.86868
1.2536
19.8768
18.1746
22.9299
20.7984
25.669
24.244
23.8217
25.555
27.8664
26.5562
27.8049
27.7426
28.689
28.9911
29.0133
29.1784
29.1146
29.0572
0.532312
4.36854
1.73174
7.29277
7.76383
2.82184
0.0519831
0.0460877
0.0191646
0.0119286
0.00703023
0.00933233
0.00604597
0.00669422
0.00589223
0.00530364
0.00524211
0.00860673
0.0111275
0.0140171
0.0180116
0.0116366
0.0231209
0.0741748
0.0276136
0.0310755
0.0585356
0.0352765
0.0933642
0.104928
0.0812684
0.309691
0.381642
0.124549
0.194097
0.288328
0.269315
7.95202
11.0074
14.5142
16.7092
2.12085
4.42842
1.29862
19.3869
17.6529
22.3311
21.1538
25.1701
23.6291
22.7592
25.1651
25.6967
26.7333
27.3316
27.2953
27.3663
28.5432
28.8484
29.0478
28.8284
29.1343
29.1548
29.1655
0.374083
2.31738
5.34635
8.17315
2.49602
0.0526169
0.0323576
0.014596
0.00974284
0.0056897
0.00829841
0.00445333
0.0056488
0.00449601
0.00417739
0.00413256
0.00663642
0.0091596
0.0127568
0.0167766
0.0106727
0.022455
0.02557
0.0567905
0.0284879
0.038478
0.0912374
0.0993678
0.0750756
0.300006
0.375098
0.12386
0.179121
0.279027
0.313177
7.27472
10.0406
13.5516
16.327
2.78539
5.57398
1.12746
20.1862
18.2851
23.9781
22.4417
24.0769
24.9806
26.3301
26.6259
27.4696
26.7076
28.1627
28.8768
28.5975
29.0926
29.0868
29.1776
29.2203
0.0345708
2.58676
4.87316
6.02516
6.43985
0.852464
0.0382219
0.0199515
0.0129087
0.00712886
0.0041726
0.00635167
0.0036775
0.00448881
0.00388411
0.00321073
0.00316742
0.00553185
0.0078423
0.0114285
0.0138716
0.0185764
0.00877379
0.024813
0.0457937
0.0668326
0.0274615
0.0321253
0.0833587
0.104181
0.323695
0.272029
0.37023
0.366632
0.13875
0.206935
0.293923
0.447336
8.16858
11.3723
14.4942
17.4738
2.74689
5.18663
1.62047
20.3079
19.4388
23.3251
21.521
23.9639
25.4184
26.0401
26.8013
28.1719
28.5368
28.8932
28.8796
29.1018
29.3013
29.2728
0.229412
1.1793
1.90438
6.39035
5.07852
0.0414839
0.0151637
0.00816875
0.00579653
0.00327464
0.00567663
0.00282333
0.00413071
0.00337213
0.00260504
0.00268017
0.004492
0.00650923
0.0106861
0.0129978
0.0174326
0.00783263
0.019674
0.0482254
0.0623868
0.0236453
0.0328806
0.0800668
0.100072
0.289535
0.364116
0.369585
0.135782
0.165446
0.25869
0.411351
6.64832
9.92126
13.0916
15.8932
17.835
2.13268
4.34611
1.5963
20.0202
22.1181
21.3867
23.3682
24.8779
26.1256
25.3313
27.0276
27.7808
27.9553
28.7691
28.8734
29.0385
29.3142
29.4198
29.3368
0.00655578
1.38126
1.06594
5.69161
4.76168
1.83191
0.0243299
0.0099043
0.00715888
0.00393577
0.00244533
0.00488329
0.00239217
0.00337529
0.00275816
0.00220468
0.00215916
0.00400923
0.00581018
0.0116872
0.00879424
0.0140421
0.00628787
0.0191567
0.0402432
0.0662262
0.0238377
0.0279348
0.082887
0.0925308
0.107689
0.286015
0.377226
0.341928
0.345456
0.122982
0.174102
0.265791
0.638703
6.71681
10.4163
14.0541
15.7837
17.2929
19.4207
2.75687
4.38562
1.4307
2.28678
21.5428
23.7113
22.1542
25.4385
24.8297
26.5041
27.8066
28.261
28.6173
28.6489
29.0001
29.3873
29.4024
29.3922
0.00619575
1.31967
5.74779
4.03609
0.878075
0.0232436
0.00738034
0.00508428
0.00336483
0.00207849
0.00424731
0.00492624
0.00197686
0.00307254
0.00224152
0.00202678
0.00191662
0.00195112
0.00332612
0.0110765
0.0081772
0.0125297
0.00581607
0.015969
0.0441477
0.0578881
0.0205388
0.0282706
0.0758532
0.0920222
0.0988465
0.205242
0.373046
0.341559
0.343805
0.137622
0.252497
0.49559
5.14003
7.65447
9.28195
11.9921
13.6842
16.9984
18.5547
20.0269
2.0655
2.85525
23.1171
21.2076
25.5398
23.7262
26.9637
28.0556
28.6526
29.0394
29.2769
29.468
29.433
0.0174214
0.0243986
0.559414
5.04876
3.08802
0.6161
0.0112278
0.00539271
0.00359228
0.00221408
0.00163126
0.00188985
0.00375397
0.00431236
0.00165359
0.00249107
0.00206801
0.00167692
0.00190881
0.00162909
0.00157862
0.00297032
0.00937717
0.00667477
0.0123668
0.00487815
0.0171365
0.0135882
0.0392927
0.0653877
0.0223298
0.0324359
0.0840116
0.0977548
0.194921
0.383333
0.305691
0.341036
0.140338
0.292699
0.728609
4.59923
7.234
10.4828
11.927
15.0579
18.2899
17.0923
19.4246
2.30436
21.8803
20.0522
25.015
23.2748
26.8024
27.459
28.2808
28.6644
28.9969
29.1893
29.4927
29.506
0.0216626
0.139319
4.74959
3.35939
0.00797954
0.00432309
0.00284943
0.00213731
0.00133208
0.00146056
0.00329574
0.00428559
0.00142361
0.00227147
0.00192541
0.00146611
0.00160145
0.00147397
0.00246139
0.0089018
0.00619968
0.0101188
0.00488955
0.0142557
0.012546
0.0460939
0.060278
0.0218776
0.0323069
0.0845198
0.105657
0.210602
0.371052
0.262238
0.321409
0.279203
0.39019
0.119832
0.542452
1.32513
5.608
8.65229
10.2455
13.2651
14.572
16.4848
19.3044
18.7089
3.93027
21.2174
25.2872
23.9613
22.0028
26.155
27.4366
27.7888
28.2718
28.6565
28.9272
28.9531
29.1921
29.4724
29.4877
0.0156869
0.0213397
1.38536
4.36384
2.49228
0.00439394
0.00772524
0.00295052
0.00174159
0.00111203
0.00124334
0.00311639
0.00358627
0.00119296
0.00202762
0.00165433
0.0012318
0.00152969
0.00129718
0.00230298
0.0068786
0.0096649
0.0041295
0.013968
0.0112538
0.040759
0.0680029
0.0180846
0.027549
0.0815622
0.0985687
0.168358
0.37974
0.307323
0.302189
0.292506
0.381683
0.133063
0.764797
1.902
5.45987
8.76062
11.6883
13.1616
16.2026
17.3675
19.3512
19.4731
4.29046
20.1011
24.4042
23.2047
21.8897
26.221
27.0171
27.1728
27.8503
28.0865
28.45
28.395
29.1261
29.5584
29.5853
0.0108871
0.00147902
0.770975
4.73652
2.67884
0.00336672
0.00468864
0.0023605
0.00131107
0.00178144
0.00107326
0.000968693
0.000977783
0.0025416
0.00347483
0.00106381
0.00190981
0.00148586
0.0011065
0.0011893
0.00131133
0.00120626
0.00208803
0.00646027
0.00778467
0.00420744
0.0113724
0.0147988
0.0460017
0.0619862
0.0194132
0.0284011
0.0875468
0.106434
0.184487
0.35125
0.259272
0.57998
0.234655
0.361782
0.390334
0.119085
1.31946
3.24935
7.5041
11.1894
14.582
16.4439
18.846
19.5322
6.08825
23.5939
24.2543
21.2624
25.5054
27.2559
27.7491
27.9697
28.1197
28.86
29.3055
29.5314
29.5482
0.009197
0.0420751
0.00923343
1.94039
0.258735
4.55512
3.5617
1.08436
0.00291339
0.00239658
0.0052429
0.00112023
0.00152574
0.000895944
0.000824372
0.000843786
0.00241044
0.00264366
0.000907647
0.00166015
0.00127357
0.00149789
0.000936082
0.00100416
0.00100673
0.00207227
0.00532351
0.00751128
0.00337759
0.0105419
0.0131326
0.0427691
0.0715228
0.0164298
0.0233324
0.034721
0.0833157
0.102437
0.143133
0.350204
0.30738
0.954716
0.252281
0.365208
0.379171
1.75309
3.83296
7.82717
12.0013
14.6315
18.0677
19.5292
20.2164
6.65152
23.2686
24.5011
21.7243
25.5464
26.8314
27.0457
27.3348
27.4629
28.3145
28.9342
29.2131
29.5762
29.6393
0.00103808
0.00857393
1.70178
0.0473832
4.72683
3.75383
1.00961
0.00217715
0.00189858
0.00464792
0.000881028
0.00119969
0.00155217
0.000863026
0.00082531
0.000741085
0.000799068
0.00072273
0.00243228
0.000849388
0.00160602
0.00116254
0.00125925
0.000918832
0.000951928
0.00189926
0.0052552
0.00613262
0.00847212
0.00277795
0.00373806
0.0116552
0.0139418
0.0525005
0.0672791
0.0173336
0.0247375
0.035385
0.0907991
0.109823
0.153128
0.309666
0.248462
0.542289
1.08422
0.200982
0.336604
0.392427
0.333414
2.91221
5.10687
9.96049
11.4189
13.5445
15.9627
18.031
19.2125
19.7522
8.78701
22.5986
23.8345
20.9598
26.2105
24.3559
26.5597
26.6806
27.1419
26.8571
28.0613
28.4194
28.7987
29.1948
29.5414
29.578
0.00859063
0.00723777
3.86772
0.709171
2.44036
0.00182731
0.0031204
0.000791927
0.00109383
0.00129921
0.000736814
0.000731269
0.000677624
0.000683747
0.000643127
0.00198175
0.00249693
0.000764396
0.00139402
0.00102838
0.00123258
0.000799595
0.000852936
0.00442988
0.00574072
0.0083285
0.002513
0.00325054
0.0104576
0.0123169
0.0511054
0.0775352
0.0206229
0.0152273
0.0302566
0.0416285
0.0869172
0.13097
0.102691
0.333834
0.738555
1.95045
0.234687
0.35246
0.384127
0.325415
3.57741
5.26823
10.2228
13.2919
14.1458
15.3803
17.4403
19.2272
20.1534
9.52718
22.7832
21.1255
25.8548
24.1981
26.0644
26.3359
26.1654
26.9589
27.5847
28.362
28.7727
29.0721
29.5877
29.6803
0.00227254
0.00967411
3.66676
0.539175
2.70977
0.00176475
0.00128471
0.00240757
0.000898884
0.000677963
0.000699095
0.000607128
0.000624376
0.000636079
0.000583943
0.00177331
0.00203401
0.000734594
0.0013576
0.000951355
0.00108908
0.000767267
0.000804417
0.000849026
0.00446164
0.00618859
0.00491144
0.00723217
0.00204376
0.00270212
0.00366449
0.0109409
0.0129435
0.0606829
0.0730568
0.0224422
0.0163493
0.0313179
0.042475
0.0933351
0.141356
0.116414
0.344842
1.28805
2.22503
3.33242
0.323716
0.209245
0.39974
0.333818
6.02857
12.0365
13.418
16.0184
18.5914
19.4415
20.0822
8.4105
12.1389
22.0869
25.0369
23.3
25.0785
25.5229
26.3728
27.3364
27.7178
28.2443
28.5656
29.2651
29.5589
29.6083
0.00851461
0.00582209
3.64334
0.0481746
1.7964
1.75601
0.00130475
0.00101301
0.00148557
0.000823735
0.000626581
0.000624906
0.00056912
0.000561221
0.00056594
0.000543225
0.00147615
0.000653633
0.0011313
0.000988425
0.000700395
0.000714548
0.000807815
0.00546425
0.00466823
0.00797823
0.00173194
0.00255291
0.00349649
0.0100001
0.0111922
0.0600599
0.0819566
0.0279816
0.0199004
0.0153395
0.0362018
0.0508272
0.090631
0.168206
0.120946
0.376956
1.65109
3.29709
4.924
0.359451
0.253861
0.394102
0.325528
12.5935
14.8222
17.6978
18.6609
20.5365
21.2004
9.45368
13.4643
22.2504
24.6697
23.4096
24.2859
25.6442
24.5667
26.5297
27.6382
28.0902
28.6472
29.1199
29.5803
29.7111
0.000849351
0.0045361
3.58483
0.753676
1.78979
2.1607
0.00101164
0.00125821
0.00162614
0.000694778
0.000555228
0.000616591
0.000575355
0.000537525
0.000528397
0.000536443
0.000521239
0.00136548
0.00063033
0.00105431
0.000897482
0.00064314
0.000695173
0.000833267
0.000723863
0.00565849
0.0039025
0.00708188
0.0017764
0.00144781
0.00219046
0.00313166
0.0111969
0.0749348
0.0306516
0.0226367
0.0170753
0.0130778
0.0370859
0.0532105
0.0970268
0.171338
0.143435
0.110214
0.285363
0.612809
3.06298
1.2081
4.87373
3.53947
0.331942
0.396564
0.224777
0.35708
14.666
18.3499
19.9722
20.8981
21.3645
11.6088
7.91059
13.1449
15.3485
22.7162
23.0903
25.3297
23.6466
25.9944
27.169
27.3811
28.1479
28.6506
29.0162
29.5271
29.6116
0.00461275
0.0265439
3.13394
0.529137
1.42967
0.000876236
0.00101455
0.000933554
0.000638531
0.000524173
0.000522489
0.000577633
0.000526892
0.000498418
0.000490687
0.000490569
0.00049529
0.00111942
0.000579866
0.000918341
0.000603376
0.000632338
0.000766171
0.000696581
0.00496791
0.00372392
0.0077353
0.0014569
0.00196317
0.00127529
0.0024669
0.00309875
0.0096271
0.076595
0.0287852
0.0202766
0.0151639
0.0129125
0.0426835
0.0659784
0.0957644
0.151365
0.126116
0.318605
0.693852
3.34144
2.09047
6.01298
5.07486
0.373462
0.393871
0.239132
0.340319
16.1229
19.3557
17.7681
20.1806
22.1386
12.1045
9.14825
15.1546
16.6378
24.6587
22.4656
23.8484
25.9559
26.4532
26.9496
28.2434
27.6793
28.5551
28.897
29.5771
29.7074
0.00615936
0.173649
0.000986874
2.85793
1.46127
1.81486
0.00071687
0.00100704
0.00181504
0.00055422
0.000485277
0.000481325
0.000533632
0.000495597
0.000489309
0.00048069
0.000473435
0.000471583
0.00103424
0.000546485
0.000845942
0.000560629
0.000597114
0.00076978
0.000643196
0.00390206
0.00542775
0.00676139
0.00146122
0.00176653
0.00113752
0.00231132
0.0107978
0.0838604
0.0315547
0.0227211
0.0154623
0.0439053
0.0693202
0.0903205
0.109114
0.186082
0.131187
0.396522
0.296894
1.13168
4.38026
2.00604
6.44308
0.387847
0.362899
0.305658
19.9948
18.4682
21.4011
11.0428
13.8137
8.79148
15.1315
16.3905
18.0063
24.4006
23.4406
24.7842
26.1459
27.0785
27.7025
27.3024
27.7395
28.4695
29.193
29.5214
29.6088
0.100041
0.00516972
2.89989
1.02022
0.976269
0.00063585
0.00078562
0.000993396
0.000519058
0.000469884
0.000456743
0.000498147
0.000470808
0.000459298
0.00044849
0.000457749
0.000450552
0.000917599
0.000510251
0.000856585
0.000542499
0.000557681
0.00060827
0.00072002
0.000649891
0.0034511
0.00486856
0.00722981
0.00123681
0.00183113
0.00106249
0.00240773
0.0103659
0.0808835
0.0289608
0.0366063
0.021115
0.0172341
0.0138261
0.0547705
0.0669184
0.0963278
0.111848
0.203189
0.170979
0.530128
0.318131
1.12355
6.09621
4.28044
3.02893
8.24113
0.381432
0.410716
0.3218
19.6495
21.4163
11.7939
14.1796
10.779
16.4313
18.0796
18.6602
22.5034
24.5072
25.4093
26.2957
26.5252
27.5036
28.6151
27.8057
29.0369
29.5278
29.7038
0.0289585
0.261748
0.000263776
2.58055
1.32236
1.25894
0.000555383
0.000734381
0.000801501
0.000880541
0.000469447
0.000441452
0.000434988
0.000475732
0.000445118
0.000440831
0.000434935
0.000440736
0.00043433
0.000910965
0.000487796
0.000751224
0.000501993
0.000533583
0.000555448
0.000599303
0.00279146
0.00398267
0.00576462
0.00834685
0.00132423
0.00109421
0.00167034
0.00198369
0.0117561
0.087439
0.0327023
0.04244
0.02396
0.0172594
0.0150991
0.0545897
0.0780294
0.093827
0.12142
0.278241
0.19029
0.397893
0.306384
1.53427
7.62887
5.43233
3.31678
9.61251
0.384462
0.401829
0.40305
20.1701
13.2126
15.5776
11.782
17.9188
18.7257
19.3702
22.393
23.499
25.3826
26.2337
26.791
27.8211
27.4223
28.4343
28.9644
29.6014
29.7863
0.0275323
0.0964274
0.000646922
2.58203
2.34566
0.787229
0.814411
0.000515728
0.000579572
0.000727583
0.000850102
0.00044986
0.000415364
0.000460133
0.000423967
0.00042373
0.000417698
0.000423137
0.000413057
0.000832176
0.000472825
0.000725882
0.000493591
0.000547637
0.000606014
0.00274447
0.00362946
0.00576947
0.00842816
0.00111596
0.00154593
0.0010133
0.00179428
0.00208955
0.0103469
0.0854594
0.0294162
0.0400925
0.0205665
0.0155007
0.0657148
0.077354
0.0985392
0.110807
0.154752
0.318851
0.267812
0.600152
0.315618
2.82331
1.28565
7.7384
9.26021
4.88568
7.15208
11.4544
0.343193
0.386202
0.403724
21.3557
13.3971
16.0987
18.8838
18.7455
19.7331
23.4442
24.547
25.3465
26.2798
27.8227
26.6692
28.3342
28.7656
29.2381
29.5803
29.693
0.00984521
0.161195
2.68002e-05
1.39568
2.32097
1.02127
0.000468182
0.000588045
0.000725396
0.000820626
0.000420647
0.000407553
0.000399043
0.000434844
0.000427061
0.000411615
0.000410071
0.000409351
0.000410845
0.00040149
0.000873101
0.000763022
0.000458962
0.000659396
0.000472772
0.000508494
0.000563831
0.00247881
0.00393815
0.00739698
0.00468357