/*--------------------------------*- C++ -*----------------------------------*\
| =========                 |                                                 |
| \\      /  F ield         | OpenFOAM: The Open Source CFD Toolbox           |
|  \\    /   O peration     | Version:  v1912                                 |
|   \\  /    A nd           | Website:  www.openfoam.com                      |
|    \\/     M anipulation  |                                                 |
\*---------------------------------------------------------------------------*/
FoamFile
{
    version     2.0;
    format      ascii;
    class       volScalarField;
    location    "10000";
    object      nut;
}
// * * * * * * * * * * * * * * * * * * * * * * * * * * * * * * * * * * * * * //

dimensions      [0 2 -1 0 0 0 0];


internalField   nonuniform List<scalar> 
71770
(
3.42601e-13
3.62022e-13
3.99905e-13
4.82512e-13
5.39842e-13
5.38536e-13
5.40365e-13
5.38557e-13
5.15121e-13
4.85865e-13
6.02651e-13
8.86199e-13
3.35769e-13
3.52e-13
3.39301e-13
2.58103e-05
1.54617e-05
4.41662e-12
5.37755e-11
2.39641e-09
4.17217e-10
4.2282e-13
4.12515e-13
1.12947e-08
1.54727e-06
5.38824e-07
3.86162e-06
1.66237e-07
4.59354e-08
8.28707e-06
4.41864e-12
5.39126e-11
4.18349e-10
2.40308e-09
0.000268919
8.18907e-05
5.84624e-05
6.01933e-05
8.41697e-05
0.000114453
0.000152662
8.63008e-05
0.000117358
0.000156388
0.000161152
6.16708e-05
0.000200974
0.000205484
0.000211798
2.61031e-05
1.56386e-05
4.01749e-05
2.64576e-05
4.07348e-05
4.13584e-05
5.92432e-05
8.2839e-05
0.000112757
0.000150705
2.68401e-05
4.23371e-05
2.74702e-05
0.000120729
8.85241e-05
6.30397e-05
0.000118472
5.42288e-07
1.55898e-06
3.89663e-06
3.94192e-06
1.57707e-06
8.37437e-06
8.47502e-06
8.60146e-06
0.000282377
0.000281143
0.000278031
0.000272801
1.58384e-05
1.60626e-05
1.64616e-05
0.000280777
0.000121687
8.86858e-05
0.000163318
8.73637e-05
0.00012039
0.000215507
0.000215702
0.000162516
0.000160316
0.000213712
0.000157713
0.0002106
0.000206248
1.73027e-07
4.14309e-06
4.20498e-10
1.14928e-08
4.67444e-08
4.78411e-08
1.81305e-07
5.85258e-07
1.67083e-06
1.17671e-08
8.84526e-06
5.4186e-11
4.49399e-12
4.17519e-13
5.4854e-11
4.25669e-10
2.44517e-09
4.61044e-12
5.61834e-11
4.3593e-10
2.50394e-09
4.28368e-05
2.75388e-05
2.77494e-05
1.67528e-05
1.69897e-05
1.67215e-05
8.60275e-05
2.7665e-05
4.22438e-05
6.17889e-05
4.20639e-05
6.10942e-05
1.74439e-06
4.28109e-06
9.05922e-06
4.35562e-06
9.1099e-06
9.23148e-06
4.46476e-06
1.92217e-07
6.16585e-07
1.23619e-08
5.02176e-08
1.31771e-08
5.34333e-08
1.79646e-06
1.85915e-06
9.44814e-06
1.67712e-05
4.60617e-06
1.92956e-06
4.36945e-13
4.75524e-13
5.90651e-11
4.58187e-10
2.63141e-09
4.86002e-12
5.54222e-13
4.88952e-10
5.52942e-12
5.15032e-10
6.64567e-11
6.10294e-13
6.30688e-11
5.22719e-12
2.80712e-09
1.38662e-08
2.956e-09
5.87636e-08
5.61341e-08
2.0122e-07
6.413e-07
2.10315e-07
6.67949e-07
6.13868e-08
2.19519e-07
6.95841e-07
6.96137e-11
5.3961e-10
1.45245e-08
3.09695e-09
6.16727e-13
5.77386e-12
6.01803e-12
6.25709e-13
7.27402e-11
1.51777e-08
1.56989e-08
6.34834e-08
5.6394e-10
3.23655e-09
5.83337e-10
3.34788e-09
7.52308e-11
6.21033e-12
8.50539e-05
6.07749e-05
8.40883e-05
2.79172e-05
2.81228e-05
1.72569e-05
4.21452e-05
4.22118e-05
6.04776e-05
0.00011667
0.000114715
1.74666e-05
9.8049e-06
7.65085e-07
8.45021e-07
5.03354e-06
2.11881e-06
2.32343e-06
4.72827e-06
2.26906e-07
7.18438e-07
1.98781e-06
9.65206e-06
6.30132e-13
7.3244e-07
2.02637e-06
4.8147e-06
2.3124e-07
6.46692e-08
2.41242e-07
1.59876e-08
3.40894e-09
5.93924e-10
6.13715e-13
6.29886e-12
7.65752e-11
1.66535e-08
6.74014e-08
1.85965e-08
2.67944e-07
7.51262e-08
6.18371e-10
3.54987e-09
7.96939e-11
5.9665e-13
6.5212e-12
8.48814e-05
6.1607e-05
0.000153443
0.000114761
9.05963e-05
6.78358e-05
2.90836e-05
4.67237e-05
4.33563e-05
6.61555e-05
4.74378e-05
3.13931e-05
3.15817e-05
1.81589e-05
0.000160934
0.000121484
5.48058e-06
8.89883e-07
5.56052e-06
2.4002e-06
1.0231e-05
1.1083e-05
1.11186e-05
1.96224e-05
1.96401e-05
9.36524e-05
0.000126202
0.000167458
0.000100833
0.000135373
7.33176e-05
3.47528e-05
5.16032e-05
0.000220208
2.86536e-07
2.92675e-06
1.278e-05
6.58599e-06
1.10968e-06
3.62258e-07
2.20108e-05
3.96734e-09
6.91331e-10
7.1692e-13
7.3342e-12
8.91383e-11
8.15732e-12
9.73639e-13
8.11273e-08
2.01862e-08
4.31665e-09
2.57713e-08
1.03276e-07
7.53003e-10
9.72511e-11
5.51644e-09
9.62468e-10
1.67191e-07
5.48679e-07
4.61828e-08
1.69198e-07
5.60298e-07
1.60716e-06
4.00796e-06
1.13538e-08
2.4155e-09
6.28098e-05
2.79486e-05
4.31415e-05
0.000154552
0.000203732
0.000211792
4.10209e-13
4.43747e-12
9.49977e-13
3.59969e-05
5.38127e-05
2.27371e-05
1.32719e-05
7.0094e-09
1.22881e-09
1.59535e-10
1.40867e-11
2.46516e-12
1.27439e-07
3.24211e-08
1.27186e-06
4.33113e-07
3.20877e-06
6.97184e-06
2.4907e-12
1.24204e-10
1.02947e-11
1.09126e-12
0.00885256
0.00800105
0.00343583
0.008622
0.00767772
0.000940216
0.00536364
0.00813238
0.00971023
0.0070477
0.00839864
0.000967436
0.00380426
0.00922844
0.010212
0.00998064
0.00792202
0.00915348
0.00749098
0.000963092
0.00124651
0.00591137
0.00949634
0.0112878
0.010857
0.00807958
0.00961714
0.00781126
0.00749834
0.00107595
0.00181116
0.00838768
0.0107501
0.0115672
0.0118916
0.0107283
0.0115267
0.00865458
0.00922521
0.010372
0.00845797
0.00781303
0.00741704
0.00195477
0.0101067
0.0107549
0.0124134
0.0117128
0.0124539
0.0114153
0.0118805
0.00946279
0.0106648
0.00886494
0.00835718
0.00768576
0.00734817
0.00206509
0.00616821
0.0113678
0.0123099
0.0129498
0.0125008
0.0128923
0.0115876
0.0123122
0.00981851
0.0103248
0.0112279
0.00881936
0.00855484
0.00824832
0.00765486
0.00741027
0.00195303
0.0078749
0.0109493
0.0128291
0.0135624
0.0128682
0.0134778
0.0120423
0.0127462
0.0123336
0.00964806
0.0105268
0.0113536
0.00930324
0.00918484
0.00829977
0.00770279
0.00740497
0.00398686
0.00225602
0.00845653
0.0124165
0.0135442
0.0130231
0.0139957
0.0133719
0.0138351
0.0121322
0.0130492
0.0127155
0.00993262
0.0109181
0.0117919
0.00966455
0.00862223
0.00824816
0.00779861
0.00741895
0.00401711
0.00211744
0.0114047
0.014093
0.0137399
0.0142304
0.0136547
0.0140741
0.0124843
0.0132695
0.0127658
0.0109596
0.0118188
0.00970509
0.00918749
0.00839846
0.00774397
0.00778316
0.00761162
0.00712534
0.00280912
0.0125324
0.0143768
0.0140365
0.0142527
0.0143005
0.0134612
0.0139004
0.0139898
0.0141734
0.0125017
0.0132707
0.0130295
0.0106551
0.0114843
0.0121667
0.0101886
0.00949278
0.00886638
0.0081375
0.00792437
0.00744836
0.00600815
0.011808
0.00263817
0.0138662
0.0145072
0.0144973
0.0141788
0.0142826
0.0137053
0.0138982
0.0140817
0.0141605
0.0127784
0.0135153
0.0130446
0.0108711
0.0115739
0.0120409
0.010006
0.00938504
0.00873116
0.00846083
0.00784019
0.00759408
0.00334519
0.0100115
0.0148892
0.0142604
0.0144181
0.0146478
0.0141826
0.0139646
0.0136656
0.0139959
0.0140468
0.013946
0.0128345
0.0134861
0.0132941
0.0104212
0.0112698
0.0121578
0.00981602
0.00909499
0.0088942
0.00841308
0.00794378
0.00756031
0.0026369
0.0103393
0.0145814
0.0147106
0.0141467
0.0144955
0.0138654
0.0136411
0.013779
0.0139287
0.0139455
0.0137047
0.013207
0.012706
0.0136084
0.0103465
0.0113503
0.0117979
0.012465
0.009799
0.00956628
0.00937814
0.00885598
0.00859284
0.00796699
0.00769904
0.00469912
0.013171
0.0149906
0.014826
0.0137185
0.0140945
0.0142506
0.0130305
0.0137181
0.0139757
0.0138469
0.0137785
0.0132459
0.0133526
0.0128348
0.013556
0.0106163
0.0110545
0.0118385
0.0124825
0.0103551
0.00977485
0.00938948
0.00894246
0.00872091
0.00806191
0.00760484
0.00439046
0.0145382
0.0151128
0.0145986
0.0129951
0.0133417
0.0135754
0.0125216
0.012744
0.0137898
0.0138907
0.0139134
0.0136239
0.0135459
0.01296
0.013281
0.0130212
0.013684
0.0111391
0.012061
0.0114127
0.0123999
0.0106037
0.0103647
0.00983667
0.00963257
0.00924649
0.00877013
0.00797257
0.00761883
0.00853839
0.00340205
0.0154272
0.0152497
0.0142245
0.0127304
0.0123235
0.0113379
0.0115993
0.0138828
0.0138288
0.0135108
0.0132837
0.0124956
0.0135214
0.0129491
0.0136786
0.0119185
0.0113783
0.0125998
0.0105612
0.0102554
0.00995399
0.00925104
0.00985306
0.00890782
0.00850682
0.00800298
0.00771259
0.00923808
0.00325352
0.0163678
0.0148159
0.0129184
0.0114321
0.0105542
0.0106937
0.0102897
0.011245
0.0138197
0.0137108
0.013608
0.0132266
0.0129565
0.0119233
0.0125339
0.0135275
0.0131066
0.0138105
0.0121368
0.0111084
0.0124957
0.0106001
0.0105198
0.0098887
0.0103436
0.00931269
0.00872883
0.00855893
0.00807272
0.00767846
0.00572671
0.0140403
0.00304464
0.0154614
0.0143214
0.0120411
0.010296
0.00837036
0.00902041
0.00857157
0.0100404
0.0136937
0.0133817
0.0129757
0.0131267
0.011121
0.0122
0.0137024
0.0134249
0.013266
0.0128313
0.0137583
0.0120301
0.0111505
0.0126761
0.0109188
0.0100218
0.010287
0.0107889
0.00980656
0.00913066
0.00896783
0.00864295
0.00784301
0.00677106
0.0126416
0.00288511
0.0147807
0.0130986
0.00911591
0.0076856
0.00521787
0.00736783
0.00800176
0.00831355
0.00724755
0.00898901
0.0101287
0.013597
0.013361
0.0124684
0.0127908
0.011411
0.0136736
0.0134904
0.0132438
0.012855
0.013747
0.0123623
0.0115989
0.0114748
0.0106139
0.0106885
0.0110339
0.0101092
0.00932229
0.00899787
0.00891733
0.00816574
0.00772471
0.00573713
0.0148912
0.00379643
0.0149145
0.0122752
0.0114975
0.00866549
0.00563846
0.0029251
0.00398969
0.00611746
0.00646749
0.00497039
0.00766673
0.00912901
0.0136313
0.0131961
0.0123579
0.0127921
0.0109884
0.0136904
0.0135922
0.0131513
0.01275
0.0123241
0.0117675
0.0109361
0.0113652
0.0104955
0.00975395
0.00952499
0.00880232
0.0095147
0.00810501
0.00801968
0.00768892
0.00675467
0.0118325
0.0154915
0.00331611
0.0125165
0.0102479
0.0062182
0.00351628
0.00141491
0.00285173
0.0045118
0.00550054
0.00607539
0.00784645
0.0092305
0.0134255
0.0132597
0.011762
0.0124493
0.0101187
0.0136545
0.0135565
0.0132434
0.0129005
0.0124976
0.0121096
0.0114261
0.0108431
0.0105929
0.00992906
0.00913463
0.00989343
0.00875238
0.00848842
0.00802111
0.0078323
0.00492117
0.0138596
0.0158271
0.00367916
0.0119022
0.00690296
0.00278616
0.00559314
0.00184937
0.000976281
0.00145342
0.000973249
0.00263327
0.00336852
0.00466416
0.00637194
0.00863945
0.0134095
0.0130628
0.0116974
0.0125652
0.00983011
0.0136421
0.0135202
0.0134323
0.0136344
0.0130421
0.0127009
0.0124434
0.0121644
0.0117449
0.011123
0.0103997
0.0108257
0.00953255
0.0102522
0.00886309
0.00855524
0.00814358
0.00780015
0.00833054
0.0153673
0.014011
0.00338559
0.00775257
0.004775
0.00101354
0.00266513
0.00125078
0.000855155
0.000957565
0.000828529
0.00165404
0.0026012
0.00328065
0.004955
0.0065476
0.00741361
0.0131344
0.0109662
0.0121724
0.00998304
0.0134621
0.0134096
0.0135945
0.0130398
0.0127513
0.0121088
0.0117206
0.0114847
0.0106073
0.0109156
0.00969088
0.0102566
0.0105957
0.00941394
0.00899386
0.00864175
0.00814359
0.00787584
0.00833929
0.0166759
0.0125412
0.00325949
0.00884356
0.00374337
0.00153758
0.00070808
0.000920308
0.00109821
0.00088015
0.0011702
0.00106313
0.00142512
0.00200019
0.00380633
0.00575854
0.00726677
0.013022
0.0109721
0.0114725
0.0125547
0.00926021
0.0133695
0.0135245
0.013242
0.0135986
0.0126515
0.0123466
0.0121409
0.0116061
0.0113347
0.0105787
0.01108
0.00951156
0.00900158
0.00883597
0.00865807
0.00825648
0.00798152
0.00581634
0.012513
0.0145962
0.00526444
0.00154571
0.000902337
0.000899914
0.000897971
0.00117869
0.00122966
0.00112747
0.00128481
0.00116403
0.00128801
0.00247958
0.00436722
0.0062647
0.00795607
0.0131753
0.0100622
0.0110472
0.0124228
0.0133867
0.0134802
0.0132135
0.0135002
0.0135444
0.0127653
0.0122503
0.0120462
0.0114642
0.011072
0.0104924
0.0100045
0.00943323
0.00929222
0.00899449
0.00891506
0.00830395
0.00787577
0.00582448
0.0133216
0.014497
0.0103797
0.00194289
0.000892081
0.000522806
0.000849537
0.00132589
0.000892015
0.00133797
0.00133083
0.00121095
0.00134012
0.000943083
0.00105121
0.00166384
0.00339894
0.00609179
0.00731125
0.0129459
0.00997701
0.0112749
0.0120658
0.0130821
0.0133856
0.0130257
0.0134096
0.0135169
0.0125384
0.0122101
0.0118455
0.0113671
0.0109257
0.00994673
0.00944451
0.00932013
0.00888042
0.00824787
0.00795846
0.00445104
0.00952869
0.0144776
0.00921622
0.00115604
0.0010998
0.00103511
0.00110954
0.00129159
0.00113374
0.00133745
0.001336
0.00132644
0.00121418
0.000944036
0.000938624
0.00119587
0.00207887
0.00419788
0.00760781
0.00915457
0.0108277
0.0121135
0.0130469
0.0133348
0.0129922
0.0134935
0.0132631
0.0134375
0.0126416
0.0125129
0.012139
0.0118798
0.0112149
0.0117015
0.0109353
0.0103749
0.0098214
0.00924545
0.00977083
0.00889999
0.00825523
0.00787585
0.00413812
0.0110549
0.014675
0.0133662
0.00499354
0.001205
0.000384666
0.0010995
0.00116962
0.00137793
0.00101888
0.00130871
0.00120836
0.00120342
0.00134663
0.00108173
0.00122157
0.000942488
0.00101336
0.00109015
0.0037371
0.00671216
0.00925947
0.0100079
0.0115559
0.0124438
0.0128317
0.0131165
0.013397
0.0132287
0.0133959
0.0126921
0.0124903
0.0122864
0.0114779
0.0118136
0.0108246
0.0113699
0.0102481
0.00981432
0.0100441
0.00923137
0.00874677
0.00821739
0.00798759
0.00554339
0.00966002
0.0138238
0.0037142
0.00105531
0.0010095
0.00118154
0.0011669
0.000908147
0.00094863
0.0013302
0.00113986
0.0010888
0.00133185
0.000871386
0.00134336
0.00123504
0.000904253
0.00109653
0.0012691
0.00201316
0.00461131
0.00559463
0.00803687
0.0100614
0.0115813
0.0121532
0.0130142
0.012993
0.0134173
0.0132598
0.0134818
0.0125395
0.0124032
0.0121019
0.0111706
0.0115278
0.0106856
0.0100094
0.0105609
0.00911151
0.00977462
0.00877845
0.00825811
0.00790027
0.00418809
0.0104723
0.0109651
0.0124402
0.000992425
0.00103765
0.00093819
0.000998882
0.00101604
0.00074871
0.00072299
0.00132066
0.00092089
0.000901645
0.00114911
0.000754359
0.0013727
0.00131359
0.000901825
0.00111673
0.00133541
0.00208172
0.00393572
0.0054668
0.00757286
0.00932911
0.0112152
0.0122337
0.0129634
0.0131027
0.0133347
0.0132481
0.0133858
0.0128958
0.0127245
0.0121532
0.0111266
0.0118563
0.0105695
0.0108385
0.00960816
0.0100361
0.00921289
0.00881386
0.0082564
0.00789789
0.0066535
0.0117549
0.0127613
0.0010578
0.000188871
0.000666059
0.000804173
0.000723887
0.000652297
0.000681753
0.00130847
0.000827971
0.000759761
0.000990475
0.000667433
0.00133215
0.0012173
0.00140492
0.000857191
0.00102034
0.000913937
0.00292691
0.00151685
0.00582625
0.00795283
0.00953304
0.0115994
0.0126283
0.0131576
0.0133886
0.0131096
0.0133888
0.0129192
0.0127643
0.0125744
0.0115625
0.0119087
0.0108881
0.0112492
0.0096615
0.0104449
0.009247
0.00885168
0.00821808
0.00821835
0.00799831
0.00599993
0.0100202
0.0123693
0.00108307
0.00367284
0.000925864
0.000635251
0.000639635
0.000752882
0.000602433
0.000644732
0.000658869
0.00115777
0.000706896
0.000698189
0.000820701
0.000666076
0.00134998
0.00116454
0.00134485
0.0013826
0.000890064
0.000982234
0.00109578
0.000882435
0.00295487
0.00190915
0.00482303
0.00711873
0.0103985
0.00807521
0.0114149
0.0126519
0.0130367
0.0133284
0.0130612
0.0133393
0.0126286
0.0115957
0.0123364
0.0113331
0.0108191
0.0102569
0.0105221
0.00981568
0.00915657
0.00874819
0.0087472
0.00826362
0.00790922
0.00803299
0.00403349
0.0122734
0.0144333
0.000818866
0.000890147
0.000933955
0.000623665
0.000625776
0.000608104
0.00056238
0.0006284
0.000616927
0.000636998
0.000676497
0.000667663
0.000778323
0.000668433
0.00122008
0.00110111
0.001285
0.00137333
0.00106745
0.000904558
0.000911096
0.00354408
0.00163175
0.00588537
0.0100964
0.00792423
0.0118655
0.0124583
0.0131675
0.0133669
0.0131596
0.0133763
0.0128941
0.0120802
0.0123488
0.0116812
0.0111555
0.0103336
0.0109877
0.00992261
0.00960332
0.00919999
0.00875881
0.00824798
0.00791003
0.00763022
0.00319571
0.010448
0.0104451
0.000687555
0.00279105
0.000906183
0.000756175
0.000548553
0.000581537
0.000531554
0.000536566
0.000537087
0.000537641
0.000613747
0.000672173
0.000672794
0.000688417
0.000813005
0.00062781
0.000664614
0.00120604
0.000892001
0.00140093
0.00136821
0.0010205
0.000906595
0.00103327
0.00312125
0.00193031
0.00536662
0.00890381
0.0110693
0.00624889
0.0116703
0.0126494
0.0131111
0.0132889
0.0130916
0.0132693
0.0129156
0.0120519
0.0125645
0.011584
0.0107195
0.0112827
0.0104784
0.00971702
0.00922573
0.00879125
0.00822371
0.00820661
0.00797985
0.00723764
0.00493888
0.0112334
0.0108852
0.000357328
0.00100519
0.000618459
0.000472658
0.000509959
0.000475998
0.000447859
0.000492403
0.000483574
0.000535369
0.000677049
0.000681742
0.000677185
0.000699962
0.000585694
0.000632385
0.0010092
0.000862293
0.00133315
0.0013235
0.00110317
0.00101081
0.000768234
0.00371491
0.00124784
0.00874707
0.0111363
0.00592107
0.0122953
0.0129721
0.0132974
0.0132049
0.0128197
0.0124353
0.011751
0.0110532
0.0112818
0.0107442
0.0102685
0.00984087
0.00921047
0.0087172
0.00870558
0.00827547
0.00793619
3.61371e-12
0.0054346
0.0100365
0.00975651
0.00225786
0.000821987
0.00052149
0.000396732
0.000447626
0.000431951
0.000441818
0.000373065
0.000419201
0.000395913
0.000486742
0.000670177
0.000673433
0.00067877
0.000691032
0.000518697
0.000597161
0.000633707
0.0010037
0.000728274
0.00140438
0.00113925
0.00138339
0.00107827
0.000679936
0.00324169
0.0014727
0.00971614
0.00721697
0.0119689
0.0106399
0.00436647
0.0123669
0.0130186
0.013218
0.0132857
5.04964e-12
0.0130202
0.0124806
0.0120323
0.0111699
0.0118298
0.0106721
0.0102675
0.0097948
0.00910586
0.00906835
0.00872725
0.00806715
2.4302e-12
0.00477009
0.010963
0.00590034
0.0108855
0.000623154
0.00084775
0.00047462
0.000339099
0.000399941
0.000360008
0.000361606
0.000325138
0.000391254
0.000401831
0.000356466
0.000436172
0.000657346
0.000677706
0.000684674
0.000483136
0.000523819
0.000620913
0.000820475
0.000732606
0.00134891
0.00108136
0.00135646
0.00100145
0.000736343
0.00232307
0.000751542
0.0094098
0.00719941
0.0121029
0.0110799
0.00439091
0.0127887
0.0132151
0.0132014
0.0128623
0.012288
0.0119988
0.0114885
0.0119317
0.0110102
0.0107203
0.0101671
0.00942835
0.00909363
0.00886178
0.00835457
0.00791112
0.0092989
0.0051675
0.00923621
0.000491076
0.000313083
0.00085168
0.000435258
0.000399184
0.000303419
0.00033119
0.000303466
0.000321822
0.000289167
0.000339293
0.000354543
0.000319949
0.000408513
0.000661162
0.000677665
0.000437061
0.000501256
0.000581536
0.000821928
0.00067825
0.00145241
0.000912349
0.00123279
0.00135378
0.000837988
0.00237324
0.000969417
0.00851757
0.0104492
0.00586734
0.0117065
0.0125105
0.00319742
0.0128211
0.013092
0.0132632
0.0129141
0.0123911
0.0114248
0.0122185
0.0109308
0.0108521
0.0105574
0.00982206
0.00958504
0.00924112
0.00831258
0.00815027
0.00784017
0.00996381
0.00551569
0.00982324
0.000646376
0.00015477
0.000846979
0.000512697
0.000351805
0.000338119
0.00028996
0.00029775
0.000275329
0.00026901
0.00026665
0.000317777
0.000328725
0.000361209
0.000659923
0.000678776
0.000431211
0.000513982
0.000575574
0.000719559
0.000678133
0.00141197
0.000908698
0.00120934
0.0012161
0.000776599
0.00152093
0.000548872
0.00836062
0.0107581
0.00647543
0.0119667
0.0125182
0.00322816
0.013071
0.0132266
0.0126327
0.0131621
0.0117149
0.0121729
0.0124565
0.0111139
0.0108738
0.0106758
0.00994642
0.00962694
0.00932538
0.00900781
0.00852033
0.00809661
0.00792004
0.00970067
0.00454052
0.00981586
0.00173603
0.000815599
0.000384953
0.000316798
0.000279856
0.000260076
0.000258783
0.000259095
0.00024067
0.000252058
0.000286461
0.000302757
0.00033963
0.00064468
0.000675984
0.000401887
0.000449971
0.000497918
0.000607232
0.000712215
0.000678224
0.00141132
0.000761826
0.00102911
0.0013144
0.00135668
0.00097556
0.00156303
0.000671676
0.00918816
0.0104866
0.0117797
0.00568731
0.0128227
0.00224087
0.00388671
0.01318
0.0132382
0.0126547
0.0131336
0.0115002
0.0120602
0.0125327
0.0113647
0.0111221
0.0103436
0.0100408
0.00991933
0.0090462
0.00851621
0.00821286
0.00798935
0.00582264
0.0105845
0.00428376
0.0105896
0.00760334
0.000107403
0.000451306
0.000783276
0.000332978
0.00025761
0.000259072
0.00023656
0.000235867
0.000234309
0.000210816
0.000253857
0.000232086
0.000268911
0.00031171
0.000276942
0.00034646
0.000655636
0.000419029
0.000369806
0.000454518
0.00048498
0.000587118
0.000683538
0.000677774
0.00142102
0.00075637
0.00102945
0.00122353
0.0013793
0.000792295
0.000716831
0.00913975
0.0111198
0.0122719
0.00614452
0.0128265
0.00207305
0.00337411
0.0132476
0.0130598
0.0129393
0.0131015
0.0116574
0.0122437
0.0126664
0.0114496
0.0111714
0.0103896
0.0101319
0.0102398
0.00943618
0.00880877
0.00870486
0.00822975
0.00789398
0.0053177
0.00928885
0.0044367
0.00998627
0.0071135
0.00074955
0.000277492
0.00104252
0.000307797
0.000229556
0.000247087
0.000201028
0.000221629
0.000206152
0.000199586
0.000190728
0.000226155
0.000254504
0.000289211
0.00026103
0.000320583
0.000632409
0.000372448
0.000395
0.000546639
0.000424887
0.000680918
0.000673115
0.00141674
0.000804249
0.000703093
0.000898285
0.00122734
0.00130128
0.000826409
0.00102003
0.00849091
0.010633
0.0120104
0.0127218
0.004242
0.00701179
0.00261712
0.013209
0.0131256
0.012864
0.0131745
0.012027
0.0125144
0.0126282
0.0119655
0.010757
0.011509
0.0106936
0.0107023
0.00990234
0.00919708
0.00907842
0.00865199
0.00817435
0.00797404
0.00297054
0.00981635
0.00303925
0.00801842
0.0102209
0.00428706
0.000452271
0.00055006
0.000316355
0.000252125
0.000196156
0.000224915
0.00018234
0.000191114
0.000178264
0.000170299
0.000168695
0.000216371
0.000243337
0.000269092
0.000300934
0.000248155
0.000338884
0.000629074
0.000368664
0.000392053
0.000557008
0.000418803
0.000675013
0.000685641
0.000655144
0.00133206
0.00142832
0.00073481
0.000978804
0.000958985
0.000756334
0.00938687
0.0110917
0.0124215
0.0129186
0.00394068
0.00659276
0.0027057
0.0131971
0.0130565
0.012974
0.013119
0.0121596
0.0126217
0.0128612
0.0120907
0.0118941
0.0113628
0.0109833
0.0108951
0.0109234
0.0100243
0.00958707
0.00902441
0.00953448
0.00865266
0.0083461
0.0078625
0.00219888
0.00780079
0.00654711
0.0101539
0.00380097
0.000480714
0.000433118
0.000282652
0.000224525
0.000177333
0.000212509
0.000155858
0.00017443
0.000155735
0.000149323
0.000150055
0.000189623
0.000222794
0.000257884
0.000291157
0.000238846
0.000334469
0.000355832
0.000547884
0.000374913
0.000437509
0.000671717
0.000679125
0.000635302
0.00130649
0.00138513
0.000736748
0.000925358
0.000874423
0.000869797
0.00892041
0.010611
0.012106
0.0128275
0.0048005
0.00759795
0.00241047
0.0131711
0.013113
0.0125183
0.0129036
0.0124469
0.0121465
0.0115904
0.0113436
0.0108041
0.0113135
0.0103842
0.00948662
0.00992714
0.00896033
0.00887499
0.0082932
0.00798367
0.000261881
0.00820952
0.00624674
0.0100481
0.00785347
0.00232469
0.000433138
0.000339886
0.000264046
0.000196631
0.000150853
0.000185217
0.000141477
0.000155093
0.000144093
0.00013205
0.000130778
0.000172168
0.000206374
0.000246042
0.000267749
0.000305051
0.000218203
0.000351236
0.000480808
0.000600853
0.000368547
0.00039821
0.000659969
0.00069047
0.00136535
0.00122782
0.00127735
0.00144908
0.000779649
0.00102032
0.000923999
0.00110574
0.00950682
0.0112406
0.0123933
0.013003
0.00475154
0.00726287
0.00319463
0.0131474
0.0131805
0.0126854
0.0130435
0.0124501
0.0119517
0.0116688
0.0111673
0.0103068
0.00987414
0.00943207
0.00934381
0.00896612
0.00820828
0.00793682
0.00191725
0.00576957
0.00389334
0.0103004
0.00681216
0.000504426
0.000289122
0.000212363
0.000176771
0.000133841
0.000174382
0.000123527
0.00014888
0.000134767
0.000119204
0.000120768
0.000155239
0.000187016
0.000238806
0.000259962
0.000296758
0.000206259
0.000313894
0.000497516
0.000578268
0.000342047
0.000404008
0.000648292
0.000680644
0.00127645
0.00125666
0.0014302
0.00077149
0.00087281
0.000750569
0.00105076
0.00844209
0.0105209
0.0119324
0.0127423
0.0130224
0.00393258
0.00647631
0.00316031
0.0131329
0.0129165
0.0130172
0.012586
0.0121129
0.0115434
0.0119428
0.0109868
0.0105977
0.0103633
0.00971168
0.00936243
0.00904264
0.00871219
0.00820089
0.00785804
7.04542e-05
0.00631215
0.00304508
0.00809681
0.00991345
0.00386518
0.000384169
0.00023427
0.000196673
0.000146861
0.000115459
0.00016169
0.00011454
0.000135067
0.000122704
0.000110342
0.000109352
0.00014662
0.000176385
0.000248219
0.0002183
0.000269214
0.000184021
0.000310131
0.000446287
0.000596347
0.000344071
0.000372521
0.000655843
0.000671084
0.000693149
0.00126422
0.00140082
0.00110362
0.00141511
0.000728144
0.0009067
0.000791356
0.00149604
0.00848443
0.0107556
0.0122259
0.0126805
0.01296
0.0131265
0.00474983
0.00651464
0.0029011
0.00414073
0.012961
0.0124627
0.0128627
0.0118277
0.0120924
0.0112313
0.0104537
0.0101391
0.00976528
0.00955177
0.00906025
0.00862915
0.00816166
0.00794001
6.91661e-05
0.00620672
0.0079092
0.0100613
0.00328573
0.000413157
0.000196629
0.000166862
0.000136358
0.00010728
0.000150896
0.000162585
0.000104898
0.000128867
0.00011046
0.00010619
0.000103403
0.00010437
0.000133933
0.000242437
0.000210649
0.000255459
0.000176541
0.000283495
0.000473494
0.000556977
0.00031873
0.000375194
0.000639081
0.000669614
0.000676403
0.00100874
0.00138446
0.00110649
0.00139206
0.000779024
0.000692954
0.00121066
0.00718993
0.00913639
0.0101394
0.0114792
0.012094
0.012913
0.0130768
0.0131045
0.00382697
0.00486391
0.0126015
0.0130119
0.0117509
0.0124182
0.0109372
0.0102274
0.00958098
0.00902501
0.00866596
0.00826267
0.00791975
0.000267583
0.000311903
0.00403812
0.00910035
0.00614748
0.002375
0.00026361
0.000170694
0.000139933
0.000111308
9.58131e-05
0.000102249
0.000141713
0.000151894
9.65279e-05
0.000116511
0.00010691
9.70866e-05
0.000103227
9.57388e-05
9.43515e-05
0.000126628
0.000225115
0.000189411
0.000254302
0.000161576
0.000293658
0.000264185
0.000440743
0.000593522
0.000333394
0.000400442
0.000660891
0.000675959
0.000978805
0.00133213
0.000936401
0.00138892
0.000791964
0.000796548
0.00165521
0.00670332
0.00883661
0.0107619
0.0114288
0.0124913
0.0130357
0.0128906
0.0131164
0.00415923
0.0128796
0.0130937
0.011971
0.0125233
0.0110173
0.0105667
0.00998159
0.00947569
0.00905564
0.0088245
0.00819998
0.0078296
0.000328918
0.00140159
0.0085995
0.00640056
0.000217083
0.000154246
0.000125117
0.000108726
8.68637e-05
9.08142e-05
0.000133135
0.000151647
8.95957e-05
0.000111302
0.000103574
9.09337e-05
9.49237e-05
9.10649e-05
0.000115742
0.00021962
0.000182734
0.00023301
0.00016214
0.000269409
0.000255202
0.000482108
0.000567523
0.000329993
0.00040068
0.000658981
0.000685642
0.00102834
0.00127358
0.000732776
0.00100867
0.00123961
0.00146247
0.000713211
0.00129609
0.00270037
0.00757566
0.00975189
0.0106299
0.0119408
0.0123382
0.0127973
0.0130744
0.0130383
0.00599721
0.0129715
0.0118341
0.0123375
0.0128129
0.0114068
0.0105689
0.0103702
0.00984483
0.00943571
0.009093
0.00906001
0.00872932
0.00815034
0.00788227
0.000259434
0.000313481
0.00633216
0.00874156
0.00589242
0.000154607
0.000213206
0.000126768
9.88801e-05
7.9225e-05
8.40894e-05
0.000129692
0.000138662
8.20306e-05
0.000105964
9.64126e-05
8.32563e-05
9.28094e-05
8.53881e-05
0.000112037
0.000192865
0.000228112
0.000148362
0.000267629
0.000243974
0.000450298
0.000604541
0.000299909
0.000368753
0.00065123
0.000674493
0.000880948
0.00132589
0.000801971
0.000912659
0.00127334
0.00143368
0.000760717
0.00170565
0.0035821
0.00745236
0.00980297
0.0112945
0.0118766
0.0127117
0.0129119
0.0130648
0.0130542
0.00636802
0.0130707
0.012176
0.0125241
0.0128101
0.0113109
0.0108531
0.0106812
0.01019
0.00991743
0.00957966
0.00956911
0.00876052
0.00814307
0.00778253
0.000239081
2.51356e-05
0.00473861
0.00877643
0.00575903
0.00013506
0.000164742
0.000114059
8.62546e-05
9.96908e-05
7.79504e-05
7.41388e-05
7.43544e-05
0.000117401
0.00013694
7.74714e-05
0.00010312
9.14458e-05
7.90187e-05
8.18709e-05
8.58702e-05
8.23885e-05
0.000107336
0.000186723
0.000205368
0.000150249
0.000245171
0.000274098
0.000483985
0.000576558
0.000311016
0.000375239
0.000664003
0.000685429
0.000938462
0.00114618
0.00071632
0.00135929
0.00109974
0.00144666
0.00136754
0.000711161
0.00268395
0.00525289
0.00900676
0.0110563
0.0123215
0.0127299
0.0130453
0.0130509
0.00794894
0.0124075
0.0121577
0.0129093
0.0116547
0.0106516
0.0101936
0.00997774
0.00978824
0.00907129
0.00860261
0.00808732
0.0078617
0.000231896
0.000695085
0.000211905
0.00729269
0.0025517
0.00917124
0.00697317
0.00467999
0.000122717
0.000114332
0.000176014
7.98461e-05
9.26706e-05
7.12154e-05
6.8438e-05
6.93413e-05
0.00011461
0.000120024
7.16967e-05
9.64732e-05
8.46451e-05
9.18501e-05
7.26998e-05
7.52415e-05
7.54067e-05
0.00010702
0.000168568
0.000201861
0.000133923
0.000236759
0.000259702
0.000463597
0.000618941
0.000285691
0.000341028
0.000411792
0.000654457
0.000680233
0.000789994
0.0011434
0.000818636
0.00205479
0.00115638
0.00143355
0.00131356
0.00335714
0.0058764
0.00920951
0.0113977
0.0123112
0.0129824
0.0130359
0.0130315
0.00837087
0.0124962
0.0120791
0.0128115
0.0115678
0.0109436
0.0106955
0.0104563
0.0103164
0.00959198
0.00894537
0.00861749
0.00812986
0.00778235
2.13644e-05
0.00023559
0.00692372
0.000605715
0.0086668
0.00708071
0.00442017
0.000108165
0.000102779
0.000163037
7.0871e-05
8.25627e-05
9.32292e-05
7.00051e-05
6.85454e-05
6.51721e-05
6.74966e-05
6.43606e-05
0.000115347
6.93888e-05
9.49705e-05
8.07343e-05
8.41363e-05
7.21256e-05
7.32813e-05
0.000102732
0.000167879
0.000181594
0.000214154
0.000122434
0.000141092
0.000247157
0.000266621
0.000520903
0.000600192
0.00029397
0.000351168
0.000417614
0.000669071
0.000691771
0.000830028
0.000951823
0.000699376
0.00128865
0.00229254
0.000985022
0.001398
0.00142172
0.00105744
0.00484895
0.00710251
0.0104442
0.0111375
0.0119831
0.0126389
0.0129478
0.0130398
0.0130163
0.00977007
0.01265
0.0123102
0.0129155
0.0112864
0.0120885
0.0109579
0.0108952
0.010515
0.0106899
0.00982682
0.00941298
0.00902159
0.00863603
0.00809492
0.0078425
0.00015537
0.000183395
0.00860517
0.00483727
0.00613482
0.000100638
0.000134877
6.71572e-05
7.87425e-05
8.57654e-05
6.5037e-05
6.47832e-05
6.2481e-05
6.27342e-05
6.09186e-05
0.000104886
0.000116773
6.6111e-05
8.85277e-05
7.60726e-05
8.32614e-05
6.75212e-05
6.95469e-05
0.00015338
0.000175662
0.000212378
0.000116906
0.000131473
0.000235733
0.000252564
0.000513713
0.00064292
0.000321104
0.000275433
0.000384938
0.000454518
0.000661055
0.000751144
0.000674985
0.000865092
0.00167648
0.00356999
0.0010976
0.00142078
0.00135641
0.000992792
0.00560071
0.00724212
0.0105621
0.0118706
0.0121559
0.0124835
0.0128858
0.0130161
0.0129878
0.0101699
0.012578
0.0128699
0.0114096
0.0121377
0.0112919
0.0110581
0.0111707
0.0106242
0.0102304
0.00945433
0.00903438