/*--------------------------------*- C++ -*----------------------------------*\
| =========                 |                                                 |
| \\      /  F ield         | OpenFOAM: The Open Source CFD Toolbox           |
|  \\    /   O peration     | Version:  v1912                                 |
|   \\  /    A nd           | Website:  www.openfoam.com                      |
|    \\/     M anipulation  |                                                 |
\*---------------------------------------------------------------------------*/
FoamFile
{
    version     2.0;
    format      ascii;
    class       volScalarField;
    location    "10000";
    object      omega;
}
// * * * * * * * * * * * * * * * * * * * * * * * * * * * * * * * * * * * * * //

dimensions      [0 0 -1 0 0 0 0];


internalField   nonuniform List<scalar> 
71770
(
1.48244e+09
1.48247e+09
1.48248e+09
1.48245e+09
1.4824e+09
1.4824e+09
1.4824e+09
1.4824e+09
1.48242e+09
1.48257e+09
1.48261e+09
1.48246e+09
1.48242e+09
1.4824e+09
1.48241e+09
180829
237674
6.68424e+07
2.61421e+07
6.33374e+06
1.21831e+07
2.3275e+08
2.32751e+08
3.54644e+06
585624
852131
422071
1.30551e+06
2.10016e+06
314278
6.68428e+07
2.61422e+07
1.21829e+07
6.33335e+06
30649.8
82014.7
106101
104712
81214.2
63420
49812.8
80028.2
62503.7
49169.1
47975.8
103329
39327.3
38913.2
38013.7
180197
236592
137934
179093
137098
136032
105615
81862.3
63802.5
49976.8
178044
134617
176871
61019.5
78332.4
101613
61526.7
851106
584353
420659
419929
583972
312916
311866
311608
29298.4
29219.1
29400.5
29911.6
235399
234620
234055
29668.9
60122.8
77716.4
47052.2
78804
60441.2
37201.9
36873.4
46923.4
47422.6
36994.3
48317
37462.9
38336.2
1.30577e+06
421792
1.2183e+07
3.54621e+06
2.09972e+06
2.10052e+06
1.30795e+06
854517
587105
3.5468e+06
312012
2.61424e+07
6.68443e+07
2.32757e+08
2.61427e+07
1.21831e+07
6.3333e+06
6.68454e+07
2.61433e+07
1.21835e+07
6.33373e+06
134386
183947
179037
245519
249465
239511
80655.4
187817
137926
103848
141346
106536
592983
426377
314666
434282
321217
327778
440694
1.31332e+06
860608
3.54795e+06
2.1022e+06
3.5508e+06
2.10635e+06
601267
606847
331470
234835
443917
609456
2.3276e+08
2.32763e+08
2.61437e+07
1.2184e+07
6.33446e+06
6.68463e+07
2.32757e+08
1.21847e+07
6.68428e+07
1.21855e+07
2.61433e+07
2.3275e+08
2.61435e+07
6.68447e+07
6.33616e+06
3.55386e+06
6.33797e+06
2.1128e+06
2.11091e+06
1.3195e+06
868199
1.32249e+06
872511
2.11357e+06
1.32376e+06
874429
2.61434e+07
1.21858e+07
3.55498e+06
6.33859e+06
2.3275e+08
6.68428e+07
6.68429e+07
2.3275e+08
2.61435e+07
3.5554e+06
3.55571e+06
2.1141e+06
1.21859e+07
6.3388e+06
1.2186e+07
6.33897e+06
2.61435e+07
6.68429e+07
82648.7
108999
84930.3
190561
193050
252019
144075
146735
111581
62956.9
64789.7
254107
335258
872778
875078
444330
608634
608931
445874
1.3246e+06
875656
611073
333735
2.3275e+08
875472
611350
446757
1.32418e+06
2.11363e+06
1.32178e+06
3.55534e+06
6.33877e+06
1.2186e+07
2.32753e+08
6.68436e+07
2.61437e+07
3.55411e+06
2.11174e+06
3.55622e+06
1.32481e+06
2.11454e+06
1.21866e+07
6.33833e+06
2.61462e+07
2.32777e+08
6.68507e+07
86708.8
113141
51082.9
66493.3
84795.8
105980
193194
143189
147737
109976
139375
187522
185123
253241
50665.4
65507.3
441819
891696
452279
623712
333466
328555
333750
247272
247896
81341.2
62870.4
48815.6
78797.3
60585.2
103593
184742
137696
38031.4
1.34049e+06
631893
337619
458716
899734
1.34665e+06
249383
6.33972e+06
1.21875e+07
2.32784e+08
6.68526e+07
2.61471e+07
6.68465e+07
2.3276e+08
2.12738e+06
3.5655e+06
6.34548e+06
3.56705e+06
2.13107e+06
1.21901e+07
2.61464e+07
6.34564e+06
1.21895e+07
1.30475e+06
850983
2.09965e+06
1.30477e+06
852046
584837
420300
3.54612e+06
6.3332e+06
101656
176268
133215
49649.9
39416.1
39274.8
2.32754e+08
6.68434e+07
1.48248e+09
169929
125069
234569
327516
6.36464e+06
1.21986e+07
2.61464e+07
6.68407e+07
2.32753e+08
2.16696e+06
3.59585e+06
929796
1.38372e+06
648068
459587
1.48248e+09
2.61458e+07
6.68465e+07
2.32763e+08
2728.83
3315.87
5317.48
3246.3
3454.74
11190.2
4115
3420.1
3038.16
3594.81
3303.69
11204.8
5007.13
3169.05
2978.12
3005.3
3372.01
3155.81
3447.68
11371.8
9875.03
3632.54
3129.18
2771.23
2852.61
3344.75
3050.01
3378.05
3442.02
10254.8
7758.68
3208.53
2903.44
2728.74
2641.42
2821.88
2691.67
3252.47
3125.59
2900.74
3261.16
3381.94
3466.08
7400.9
2884.13
2899.92
2524.37
2643.39
2503.09
2682.69
2595.08
3078.19
2838.44
3183.49
3278.65
3411.95
3485.12
6210.57
3909.41
2789.62
2576.66
2352.65
2447.4
2341.18
2632.77
2482.8
3012.99
2912.16
2706.6
3193.29
3231.23
3289.05
3411.16
3467.18
6424.52
3366.92
2870.74
2411.56
2128.46
2319.97
2101.43
2526.41
2339.96
2444.5
3035.47
2865.89
2671.33
3108.82
3122.41
3283.78
3404.39
3472.18
4760.27
4630.76
3103.59
2612.58
2164.28
2416.12
1926.38
2101.84
1921.7
2489.21
2234.91
2324.72
2977.34
2769.51
2566.4
3022.82
3227.15
3296.43
3382.54
3480.78
4606.75
4765.19
2721.49
1999.06
2171.49
1747.46
1956.69
1748.94
2387.63
2099.12
2289.95
2755.98
2552.2
3028.08
3132.07
3277.1
3402.88
3390.41
3444.35
3436.28
4858.47
2512.21
1800.09
2054.24
1595
1698.79
1999.51
1802.99
1729.19
1621.67
2359.32
2053.21
2157.53
2830.27
2635.06
2460.89
2937.58
3061.12
3194.52
3334.82
3382.07
3487.25
3524.35
2579.6
4900.33
2173.51
1647.17
1745.02
1463.32
1509.31
1849.91
1743.55
1565.6
1514.56
2235.51
1930.17
2125.34
2774.7
2599.91
2484.34
2957.39
3085.89
3217.04
3276.53
3396.53
3459.66
4531.8
2747.06
2227.87
2042.06
1498.28
1625.12
1418.64
1351.95
1836.97
1636.49
1524.74
1376.13
2180.69
1915.82
2012.01
2867.86
2672.78
2446.78
2993.16
3142.77
3181.55
3279.52
3386.19
3471.88
4658.67
2609.93
2105.26
1759.18
1352.4
1425.55
1294.49
1245
1743.97
1635.84
1423.64
1293.89
2019.18
2233.79
1821.74
2883.93
2646.05
2530.71
2342.1
2990.17
3044.27
3074.55
3187.36
3244.06
3377.34
3445.92
3745.34
2248.95
2067.85
1632.5
1237.13
1310.36
1314.17
1130.45
1750.5
1561.76
1410.71
1337.23
1180.32
1932.94
2169.66
1821.26
2829.43
2718.71
2512.96
2288.76
2878.77
2997.52
3077.59
3165.94
3220.99
3370.58
3479.2
3701.73
2091.8
1811.72
1412.92
1110.91
1150.17
1170.36
1053.44
1097.29
1685.2
1597.17
1464.58
1309.2
1265.4
1136.54
1943.42
2063.65
1716.99
2688.23
2447.99
2614.62
2315.2
2816.52
2867.44
2991.14
3025.45
3106.57
3212.87
3396.94
3481.71
2775.45
3333.66
1854.72
1712.03
1282.27
1062.1
1004.04
930.927
965.028
1507.6
1429.39
1279.94
1198.65
1070.23
1810.82
2072.45
1707.77
2473.11
2613.49
2220.59
2825.5
2898.39
2948.9
3105.22
2972.96
3184.54
3281.28
3392.85
3466.04
2587.13
3363.69
1742.75
1423
1066.94
929.547
848.69
880.941
843.233
936.177
1502.43
1371.78
1320.89
1205.93
1146.07
1003.26
1082.01
1781.25
2002.55
1580.36
2392.05
2682.57
2251.02
2805.27
2819.69
2970.34
2862.81
3096.61
3221.97
3263.91
3385.85
3486.43
2987.53
2007.43
2678.02
1450.84
1289.33
959.019
833.213
702.148
765.133
733.719
841.547
1391.06
1256.8
1155.59
1194.92
930.354
1041.74
1641.2
1842.18
1925.59
2096.08
1566.08
2406.03
2663.83
2176.03
2726.13
2928.58
2868.52
2752.16
2986.34
3128.44
3161.37
3251.18
3452.9
2733.27
2074.01
1909.84
1292.89
1070.11
736.571
676.418
555.086
644.998
702.128
724.635
653.07
767.625
850.456
1354.75
1264.1
1079.76
1133.89
960.017
1601.57
1789.67
1900.35
2065.34
1470.69
2282.07
2539.44
2566.06
2780.46
2766.4
2691.54
2919.3
3089.69
3161.46
3177.29
3368.29
3491.9
2718.87
1840.48
2192.19
1274.42
966.562
902.69
712.247
569.688
451.769
494.273
607.935
629.164
546.555
691.324
783.729
1386.49
1223.55
1069.49
1141.14
924.616
1483.03
1687.79
1935.42
2103.58
2277.42
2478.51
2690.57
2586.04
2818.67
2996.9
3041.6
3212
3045.85
3386.7
3421.41
3512.48
2591.13
2063.39
1494.67
2069.64
965.55
795.339
573.573
486.182
385.117
433.65
527.702
577.056
610.217
702.219
792.051
1303.51
1248.13
1000.61
1090.22
855.832
1451.42
1675.23
1884.9
2035.49
2209.45
2356.27
2558.26
2713.82
2776.73
2954.45
3138.84
2970.25
3226.82
3299.81
3422.61
3479.47
2645
1870.81
1367.76
2403.29
905.101
606.565
438.564
543.152
405.47
339.042
378.173
343.308
451.192
478.47
549.931
627.329
755.839
1312.68
1204.75
998.786
1113.54
836.368
1488.8
1362.51
1771.72
1562.52
1968.38
2102.1
2207.15
2303.57
2450.89
2637.52
2833.09
2711.67
3040.88
2871.59
3201.17
3284.95
3405.57
3499.52
2257.77
1558.36
1093.63
1807.76
621.109
498.564
367.219
419.001
374.943
308.579
326.628
305.248
401.168
448.374
481.121
561.792
636.785
686.959
1230.34
928.987
1058.85
849.394
1362.61
1749.32
1567.16
1951.39
2057.5
2324.28
2436.13
2513.67
2760.82
2684.61
2993.71
2856.08
2767
3060.1
3171.99
3278.51
3410.56
3486.54
2223.36
1434.46
937.833
1847.83
674.197
463.273
383.595
315.198
332.711
283.007
312.437
274.688
361.922
388.789
424.882
514.984
596.903
678.842
1208.02
932.846
981.851
1118.1
800.927
1329.86
1654.58
1847.64
1505.43
2096.9
2230.76
2288.23
2457.92
2544.26
2763.88
2614.82
3040.94
3174.81
3220.39
3272.07
3385.67
3468.51
2095.22
1771.68
1103.32
514.632
341.268
323.269
281.885
325.986
270.268
269.066
282.141
245.104
362.002
379.484
445.835
538.468
622.913
721.698
1250.66
859.328
944.623
1103.48
1348.96
1648.98
1833.21
1410.86
1561.03
2038.1
2237.49
2307.46
2492.27
2610.78
2780.17
2916.16
3065.7
3098.56
3178.36
3203.67
3388.52
3512.41
2127.69
1708.01
1025.43
707.463
351.289
307.914
287.973
278.967
243.385
303.464
244.975
244.887
270.371
228.397
316.004
359.906
408.947
498.082
614.84
684.702
1198.75
855.021
968.943
1056.37
1243.73
1721.8
1928.39
1377.47
1539.35
2118.65
2229.89
2359.14
2517.17
2650.92
2925.15
3065.54
3093.11
3221.02
3405.57
3494.62
1635.12
1937.82
1304.68
643.911
318.572
244.635
252.898
245.835
222.01
282.017
235.341
233.066
242.923
213.046
303.428
317.938
373.174
428.859
529.782
702.063
797.883
928.963
1067.07
1240.72
1726.07
1920.47
1441
1316.48
1632.61
2060.65
2108.2
2248.45
2330.46
2554.66
2398.91
2631.14
2804.92
2960.7
3109.6
2967.18
3214.97
3418.41
3533.15
1636.38
1750.25
1351.51
1000.98
414.618
249.603
292.136
227.413
225.901
220.913
192.259
264.899
213.747
213.28
235.074
200.028
273.86
297.85
355.826
383.179
510.64
656.875
807.097
863.025
1001.77
1115.63
1186.11
1854.54
1402.48
1316.71
1642.91
2029.97
2098.23
2167.18
2460.43
2347.34
2668.6
2488.36
2831.74
2948.04
2891.77
3119.92
3271.11
3430.28
3505.26
1751.14
1740.56
969.08
390.337
254.741
189.426
199.936
200.216
183.742
186.09
244.158
205.118
200.715
224.821
181.183
259.53
273.278
316.514
370.461
387.854
433.515
556.526
602.85
731.415
869.945
1008.07
1078.43
1242.35
1898.17
1436.86
1745.79
1550.87
2069.2
2111.49
2223.68
2549.03
2435.68
2701.96
2890.69
2733.28
3154.11
2962.93
3260.97
3431.43
3544.3
1598.51
1694.89
631.333
1340.86
295.289
221.131
170.508
179.976
182.1
159.423
164.797
227.898
185.009
185.31
206.898
166.657
237.89
264.732
306.816
361.311
390.787
435.104
525.511
596.131
705.077
817.224
970.912
1093.54
1235.77
1841.89
1386.58
1714.93
1605.35
1925.44
1988.09
2191.07
2557.78
2303.8
2723.55
2648.75
3008.74
2891.03
3129.7
3259.95
3428.59
3555.63
1646.3
727.398
1171.67
221.511
257.471
148.8
153.185
158.594
143.762
149.075
226.818
177.007
173.295
194.017
154.829
227.896
278.335
245.292
331.436
292.751
360.365
484.32
404.302
613.866
728.906
833.84
1014.66
1158.32
1299.6
1450.73
1795.55
1567.69
1901.81
1948.97
2024.36
2402.1
2272.66
2613.65
2511.6
2993.43
2765.52
3122.48
3249.54
3442.92
3452.05
3530.17
1583.05
551.499
1234.22
185.75
326.782
204.027
133.883
142.829
144.599
131.872
128.086
135.931
210.126
159.478
164.844
178.106
140.674
232.538
210.755
265.158
246.39
325.839
299.331
374.388
334.277
482.439
425.153
570.865
684.087
903.194
740.053
997.811
1172.54
1270.47
1408.97
1800.81
1621.84
1992.15
2381.47
2112.96
2470.19
2632.32
2812.18
2723.1
2953.23
3167.09
3278.8
3279.45
3453.88
3573.14
1478.93
1104.01
715.039
1056.96
154.691
261.797
182.11
116.89
123.01
119.484
112.863
116.524
118.123
121.432
155.19
154.463
173.538
128.394
217.207
205.095
270.615
234.271
285.863
355.691
320.109
516.046
408.524
620.57
880.869
731.583
1051.27
1137.42
1321.51
1472.09
1734.32
1566.22
1864.47
2201.32
2097.69
2340.36
2512.99
2788.02
2553.97
2907.52
3017.55
3136.05
3292.09
3456.76
3580.17
1449.02
949.386
532.56
1284.36
134.112
308.815
201.011
145.585
101.85
116.511
107.739
97.6301
100.122
100.515
112.659
143.657
146.252
157.902
178.924
116.81
129.421
216.091
186.385
259.829
238.629
293.804
327.878
364.982
492.735
424.418
596.389
796.275
967.008
641.349
1030.48
1177.13
1312.17
1425.11
1759.78
1646.44
1828.13
2188.56
1999.66
2360.1
2666.86
2447.39
2728.04
2982.08
3133.84
3279.22
3471.6
3480.93
3563.97
1463.17
1137.68
698.632
1157.69
233.078
188.76
124.281
89.8721
99.7504
92.3578
84.1823
93.8818
91.3796
100.542
135.388
139.151
154.973
164.483
108.249
117.749
199.203
183.46
265.348
226.656
282.013
296.691
347.007
521.702
388.607
786.881
977.124
625.463
1114.66
1261.02
1463.33
1664.59
1878.76
2028.79
2301.8
2528.63
2442.49
2628.05
2819.44
2937.71
3149.25
3315.74
3312.69
3471.69
3594.97
8.05531e+07
1214.92
519.041
1219.68
271.92
147.476
102.981
77.5411
86.0238
81.5299
84.538
74.7639
82.8218
79.3339
93.7533
128.907
131.672
141.89
159.957
98.3145
110.68
118.549
197.881
168.445
257.216
211.327
237.801
289.163
323.567
501.525
399.78
857.471
696.161
1070.9
931.546
554.504
1132.21
1287.96
1384.34
1584.97
7.05337e+07
1770.64
2005.36
2199.24
2477.26
2245.54
2653.23
2798.04
2950.28
3181.18
3189.65
3316.5
3553.44
1.04549e+08
1079.19
648.578
1190.59
1063.37
214.464
140.072
91.111
69.2432
75.8721
69.1883
69.9791
64.4815
77.7573
79.9563
71.6953
86.0598
124.325
139.706
147.898
93.469
99.4338
115.491
181.037
167.951
265.42
206.028
231.62
297.167
326.025
458.04
355.011
836.501
695.261
1094.19
974.701
554.658
1219.13
1413.51
1631.76
1832.05
2092.6
2186.05
2360.34
2204.59
2515.75
2629.89
2828.66
3081.99
3185.3
3275.44
3449.25
3632.07
451.25
1058.82
1138.52
167.117
233.238
116.527
84.8972
76.0643
60.1967
64.0958
61.3662
62.1809
57.3534
68.0459
71.8975
64.706
81.3621
127.499
140.847
86.1781
95.7907
108.389
180.005
158.246
250.563
191.282
220.197
274.134
309.479
457.886
367.688
776.613
919.54
627.509
1041.07
1164.91
503.556
1236.5
1326.02
1538.14
1795.73
2038.21
2375.07
2097.57
2540.56
2556.05
2677.03
2939.76
3019.9
3146.46
3472.8
3547.09
3670.14
566.603
1179.37
985.907
149.175
180.338
127.181
92.2485
67.7135
64.9502
56.9901
58.7383
54.0813
51.8541
51.321
63.8156
66.0713
72.6606
127.418
142.871
85.025
97.8018
107.497
166.369
147.116
255.762
190.113
218.153
283.435
316.805
412.339
333.393
767.094
950.295
657.639
1080.98
1174.72
502.643
1332.54
1573.47
1920.62
1663.1
2274.92
2092.27
1998.07
2472.13
2553.65
2624.5
2893.12
3002.73
3107.6
3217.7
3406.15
3569.56
3641.31
455.114
793.652
1025.73
164.335
113.02
79.8322
60.292
54.3533
49.9318
49.3203
49.6609
45.6424
47.5573
55.9673
60.281
68.8104
120.393
137.525
81.1078
89.0118
96.2737
112.882
163.511
142.141
244.93
174.3
203.169
228.649
275.74
305.874
412.312
343.339
826.786
927.393
1059.79
619.204
1244.52
455.256
535.645
1389.59
1529.98
1902.86
1633.97
2333.34
2136.54
1950.82
2370.52
2456.32
2748.83
2855.17
2887.9
3207
3405.49
3532.78
3625.78
261.888
558.423
681.045
874.049
929.72
131.817
86.4107
117.127
64.5697
48.6471
49.2936
44.733
43.6706
43.3425
38.7501
47.9913
42.9087
52.0102
62.2211
53.8021
70.0336
125.447
83.559
75.7195
89.2017
94.095
109.546
150.837
142.119
254.648
172.647
202.527
219.133
270.821
322.205
363.629
824.517
989.387
1132.19
643.707
1255.95
442.471
513.653
1472.57
1338.55
1765.31
1656.41
2272.95
2055.52
1880.69
2332.01
2434.04
2726.97
2808.26
2773.9
3074.24
3296.87
3338.21
3542.56
3679.97
250.489
401.937
769.848
925.524
879.033
122.798
72.3279
110.955
58.3596
43.4329
46.5957
36.8056
40.7024
37.6634
36.4204
34.8277
41.6713
48.3806
57.2862
50.2323
64.2493
117.77
75.6472
80.2656
103.534
85.7876
147.977
134.326
249.692
180.028
163.917
191.94
220.026
279.131
322.841
376.33
782.626
944.081
1097.59
1230.08
552.352
694.356
478.998
1504.8
1384.67
1782.49
1578.68
2134.28
1937.28
1886.38
2135.72
2590.54
2307.42
2600.15
2592.21
2897.2
3152.21
3195.86
3372.45
3561.7
3643.97
179.197
445.027
569.79
909.503
759.601
658.222
114.938
83.7868
60.5795
47.3121
35.84
41.4926
33.1577
35.0274
33.0534
31.1432
31.0745
39.7777
45.7288
52.0904
59.8522
46.8926
68.2265
117.911
74.902
79.2635
105.089
84.2317
138.315
153.036
124.047
232.49
267.197
169.499
198.3
300.659
356.08
847.142
992.405
1168.48
1293.42
538.195
671.709
479.956
1469.03
1352.04
1721.22
1612.46
2069.97
1872.1
1769.6
2081.37
2160.45
2352.71
2488.47
2505.28
2505.28
2847.41
3009.1
3218.81
3023.59
3367.1
3493.23
3709.45
170.124
297.07
816.597
804.923
656.679
109.456
74.7085
51.6394
43.3932
32.0848
39.0498
28.5729
32.3843
28.8696
27.9756
27.5403
34.998
41.1124
49.4672
57.6204
44.6844
67.1362
71.8599
103.654
75.9854
87.9479
135.827
146.317
118.173
229.628
270.803
168.118
193.57
319.099
360.058
815.514
946.249
1119.41
1272.82
580.229
733.616
467.736
1532.62
1394.43
1915.45
1739.18
1934.37
2056.61
2271.72
2347.22
2542.52
2360.69
2712.08
3043.95
2880.74
3246.82
3277.38
3518.25
3660.01
132.01
315.093
780.112
599.629
820.001
366.7
88.2442
58.7007
48.888
36.255
27.6601
34.2931
25.9936
28.9427
26.9555
24.3145
24.2198
32.1306
38.0004
46.4494
51.8084
60.8961
40.2094
70.6447
95.2433
111.23
74.513
80.6743
126.307
150.884
237.078
221.555
289.841
253.01
177.965
202.814
318.098
404.56
859.234
1011.72
1169.52
1343.83
578.105
714.13
507.249
1544.63
1474.81
1838.73
1649.94
1924.79
2126.77
2231.61
2399.98
2733.34
2890.06
3063.29
3090.77
3245.75
3569.72
3688.23
119.657
204.401
489.136
620.398
745.508
82.2398
52.4475
38.4659
32.7912
24.4666
32.5528
22.856
27.7452
25.022
21.8536
22.1927
28.9361
34.8058
44.748
49.9991
58.7436
37.9748
62.6772
96.9322
107.885
69.1286
81.386
123.504
147.025
226.829
289.749
258.416
175.999
189.556
344.659
391.479
787.52
943.002
1097.14
1247.28
1369.57
542.311
671.078
505.107
1524.43
1712.39
1642.96
1856.68
2053.84
2263.25
2121.05
2459.99
2621.41
2697.53
2962.32
3083.96
3211.29
3364.74
3587.4
3733.35
93.0503
218.826
350.052
702.945
480.325
473.951
63.3313
42.2773
36.4
26.7993
21.1792
30.2015
20.8851
24.9897
22.4783
19.9804
19.745
27.3443
32.9404
47.084
40.2851
52.1596
34.1692
61.7698
90.1734
111.053
69.2814
74.9887
126.382
137.883
155.362
226.238
269.29
309.823
244.12
168.898
192.017
335.868
426.929
791.662
968.453
1149.54
1244.72
1334.33
1479.51
580.415
673.195
493.157
552.264
1662.13
1902.57
1722.36
2150.75
2053.32
2359.85
2659.97
2787.32
2930.51
2999.32
3200.81
3405.59
3602.5
3701.79
89.5778
212.62
726.722
401.149
267.239
56.2585
37.5344
30.4699
24.6764
19.3745
28.1474
30.2994
18.8456
23.8426
20.2926
19.0864
18.5355
18.6943
24.8343
45.688
38.8191
49.0479
32.9446
56.3288
93.2382
103.933
64.4394
75.3492
118.691
137.426
146.135
203.463
269.453
308.686
246.976
176.66
364.377
409.355
714.892
837.8
915.435
1044.68
1131.48
1316.38
1418.91
1528.25
539.721
587.029
1834.48
1629.86
2173.44
1910.6
2465.31
2743.18
2990.57
3217.66
3378.38
3566.4
3716.4
65.1063
78.2249
138.533
554.788
502.322
259.411
42.5926
31.5928
25.6715
19.8915
17.0255
18.4828
26.4899
28.3905
17.1307
21.3805
19.3435
17.2724
18.4914
17.016
16.7313
23.457
41.6551
35.2397
48.6301
30.1911
58.3553
51.4345
89.151
110.169
66.9773
81.0002
127.119
144.616
199.142
287.759
326.453
245.541
177.203
367.46
440.191
686.112
818.639
974.07
1043.59
1205.47
1403.07
1325.95
1480.94
554.036
1698.83
1531.44
2089.64
1858.52
2432.74
2598.64
2833.29
3025.04
3202.09
3307.75
3596.68
3768.51
65.8601
99.4011
552.309
524.859
36.7579
28.0272
22.7741
19.6577
15.3353
16.0829
24.7549
28.2603
15.8892
20.4081
18.5897
16.1229
16.8709
16.1859
21.2661
40.5327
33.9273
43.4264
30.1564
52.9147
49.1611
95.6089
106.212
66.2972
80.6302
128.258
154.099
204.798
291.345
357.869
318.645
225.235
266.802
168.018
418.529
490.72
740.266
887.242
963.838
1110.9
1181.05
1288.15
1476.5
1434.92
655.35
1635.69
2136.81
1942.15
1717.23
2292.93
2595.98
2679.67
2871.74
3037.03
3181.26
3195.71
3344.14
3616.09
3741.02
60.466
68.0734
218.781
499.206
422.964
28.42
36.2338
23.2749
17.6131
14.0364
14.7859
24.0291
25.8633
14.5429
19.1351
17.1589
14.7953
16.482
15.1916
20.5555
35.6654
42.3692
27.834
52.1919
46.1268
90.5156
112.487
60.3003
74.7084
125.243
146.137
191.11
286.404
383.209
331.108
229.715
266.226
174.917
448.389
530.974
732.637
893.67
1034.87
1108.2
1274.62
1345.08
1481.17
1491.71
673.75
1537.87
2004.28
1852.81
1708.78
2318.2
2489.34
2543.97
2733.09
2832.03
2969.83
2967.36
3324.7
3629.88
3801.5
45.5371
58.8415
162.701
539.686
465.155
24.9276
28.4604
20.6954
15.2
17.8696
13.7685
13.0659
13.1503
21.6489
25.3749
13.7317
18.5203
16.2486
14.003
14.5265
15.2711
14.6411
19.4531
34.5983
37.906
28.0031
46.3853
53.9909
95.0478
107.511
62.4188
75.688
131.847
155.28
196.585
306.453
361.95
426.679
213.374
250.081
285.427
167.452
491.61
618.584
833.163
1012.04
1183.45
1291.75
1444.66
1496.62
765.919
1901.58
1994.97
1647.06
2188.42
2558.85
2722.23
2803.21
2872.81
3181.46
3406.58
3651.57
3758.5
39.6601
60.5324
43.5735
266.074
101.397
496.675
510.772
231.701
23.7406
20.9617
29.7867
14.0299
16.4641
12.5808
12.0455
12.1686
21.0316
22.0261
12.6595
17.2085
15.0461
16.3079
12.876
13.3458
13.3506
19.3634
31.5808
37.2102
25.2204
44.5256
50.5681
92.255
115.557
57.509
68.4176
84.3168
127.305
150.59
181.182
306.283
375.478
464.629
218.165
254.758
288.658
522.196
652.263
849.9
1052.95
1188.47
1391.7
1498.11
1551.35
794.604
1862.05
2028.39
1695.68
2208.4
2451.8
2528.71
2614.19
2662.07
2951.89
3234.54
3389.98
3637.97
3808.52
48.5893
36.3934
245.79
78.2268
545.395
530.149
228.41
20.1281
18.4725
28.5083
12.4314
14.5306
16.649
12.3281
12.0403
11.3712
11.8386
11.2294
21.0866
12.241
16.9107
14.3996
14.9668
12.7393
12.9901
18.4875
31.3035
33.7711
39.5608
22.6894
26.4938
47.1571
52.2906
100.788
112.096
58.9637
70.4434
84.7314
135.709
158.756
184.486
325.34
355.263
420.818
472.933
204.038
240.775
276.023
315.303
600.586
719.023
953.691
1025.27
1130.3
1262.98
1392.59
1473.38
1517.49
899.381
1786.45
1936.17
1622.85
2322.31
2014.79
2423.78
2448.84
2581.27
2512.38
2855.58
3019.17
3192.2
3380.58
3649.38
3771.51
55.2914
39.4656
449.465
146.606
397.789
18.1573
23.1351
11.7921
13.8912
15.1484
11.3292
11.2879
10.8453
10.8991
10.5572
18.8943
21.3827
11.5623
15.7467
13.5184
14.8037
11.8421
12.2642
28.8818
32.6804
39.2154
21.4959
24.724
44.3619
48.7676
99.4823
120.599
64.2249
55.285
78.6011
91.5881
131.483
174.36
152.138
385.895
440.538
546.345
213.818
248.075
283.194
327.778
638.743
727.443
967.88
1119.74
1163.7
1232.05
1353.45
1477.18
1551.72
936.806
1811.35
1641.47
2266.06
1993.63
2308.23
2381.59
2342.31
2537.5
2696.35
2999.9
3184.8
3345.82
3647.95
3837.1
45.1311
35.9161
453.257
133.183
425.927
18.0632
15.0882
21.8407
12.5545
10.8446
11.0305
10.2457
10.3991
10.4924
10.0454
17.8533
19.1831
11.32
15.5222
12.9897
13.9347
11.5888
11.884
12.2313
28.9253
33.8736
30.3764
36.5401
19.2127
22.336
26.2562
45.5292
50.1799
107.175
116.867
66.9649
57.2332
79.8499
92.0455
139.612
179.587
165.427
377.278
499.357
561.735
625.419
237.925
206.523
268.74
310.288
767.434
1056.2
1127.61
1269.86
1432.22
1496.88
1548.39
883.402
1064.92
1737.58
2117.53
1875.85
2134.06
2214.51
2401.35
2652.88
2763.85
2962.17
3131.5
3404.57
3668.1
3784.52
47.7303
27.5178
438.638
61.869
257.277
310.714
15.5876
13.3177
17.7029
12.0368
10.4062
10.4116
9.91695
9.83628
9.87818
9.67593
16.2092
10.6529
14.1775
13.2477
11.0522
11.1645
11.92
31.9133
29.5942
38.3658
17.6504
21.6641
25.6213
43.3131
46.172
106.668
124.687
75.2462
63.0905
55.4104
86.2108
99.2496
136.292
192.629
167.762
394.519
523.578
628.826
712.264
250.629
219.998
279.148
321.299
1086.54
1203.03
1371.5
1439.9
1589.03
1649.49
935.346
1133.21
1757.49
2072.11
1897.33
2015.54
2249.22
2059.47
2454.11
2740.28
2936.6
3149.45
3381.03
3653.53
3851.38
39.0998
23.9312
450.149
138.822
258.077
355.164
13.3522
15.2868
18.2219
10.9789
9.77525
10.338
9.9709
9.62588
9.5396
9.60778
9.47533
15.5704
10.4554
13.6904
12.6019
10.5651
11.0058
12.1178
11.2436
32.384
27.223
36.1345
17.8682
16.0476
20.148
24.0464
46.1879
118.555
78.8326
67.3181
58.8113
50.5307
86.7737
101.018
144.755
193.096
182.7
159.967
358.226
442.53
615.158
494.49
709.983
641.561
241.719
270.743
211.091
300.455
1196.57
1417.24
1541.43
1625.94
1669.64
1039.96
861.781
1118.25
1234.59
1813.51
1861.24
2186.54
1929.21
2336.37
2592.76
2688.29
2952.94
3173.38
3345.74
3673.09
3805.39
25.5337
35.4833
394.074
114.67
265.703
12.2889
13.4455
15.1804
10.527
9.49397
9.47181
10.001
9.53293
9.26119
9.18152
9.17899
9.233
14.0984
10.0185
12.7443
10.2247
10.4743
11.597
11.0228
30.467
26.4722
37.7816
16.0834
18.9322
15.0436
21.3133
23.9233
42.5374
120.117
76.2642
63.7527
55.229
50.1694
92.8211
110.613
143.261
185.435
172.755
371.146
447.942
632.664
558.801
768.582
722.518
258.267
285.967
215.505
312.264
1277.29
1488.69
1379.45
1562.09
1751.48
1066.61
922.991
1225.16
1308.74
2072.25
1791.98
1958.61
2332.85
2432.11
2579.18
3016.97
2781.03
3153.56
3315.35
3674.76
3878.69
20.6459
64.0058
25.0336
381.692
218.655
319.763
11.1067
12.9316
16.2658
9.76341
9.12456
9.08172
9.59409
9.23517
9.1735
9.08253
9.01667
8.99229
13.5676
9.72581
12.2243
9.85085
10.1731
11.6233
10.5738
27.0609
31.7421
35.303
16.1034
17.8435
14.2283
20.5831
45.3207
127.266
80.1788
67.4053
55.7388
93.5448
113.785
134.988
160.895
200.398
174.227
410.607
338.449
492.048
691.001
552.202
793.606
283.609
254.872
233.944
1546.19
1427.98
1678.63
1014.04
1154.38
906.771
1226.13
1296.5
1396.52
2047.73
1905.09
2112.34
2370.63
2610.07
2835.41
2693.94
2863.31
3128.52
3418.9
3699.96
3823.7
54.152
23.6467
377.067
167.061
199.937
10.5468
11.4308
14.4372
9.43274
8.97059
8.83494
9.26399
8.99489
8.87418
8.75848
8.85717
8.77845
12.7639
9.37897
12.2972
9.68762
9.82719
10.269
11.2243
10.6299
25.5069
30.1523
36.5021
14.8142
18.1748
13.741
21.0486
44.3176
124.52
76.5474
86.9683
64.9833
58.7847
52.6901
102.779
111.773
143.244
161.404
204.891
194.287
423.559
352.752
487.766
777.4
686.194
618.288
881.355
302.268
278.886
239.998
1519.02
1684.73
1052.28
1175.67
1002.44
1299.93
1402.56
1442.01
1797.72
2068.68
2217.71
2402.24
2476.04
2782.06
3197.01
2885.18
3399.81
3680.1
3880.3
35.3099
76.8653
18.3687
351.363
202.285
234.287
9.77107
10.9772
11.6632
14.8748
8.95771
8.68168
8.61351
9.04352
8.73386
8.68962
8.62316
8.68365
8.61089
12.7024
9.16434
11.4733
9.30159
9.60785
9.80523
10.1968
22.801
27.4088
32.6603
39.3739
15.3228
13.9393
17.3566
19.0279
47.7357
131.285
81.6518
92.3228
69.3835
58.7772
55.1153
102.459
120.694
140.233
170.812
226.339
200.55
404.055
334.575
522.926
854.635
747.577
634.023
949.254
297.516
279.292
266.766
1562.07
1124.85
1252.73
1053.51
1392.74
1449.77
1497.68
1788.68
1927.39
2224.7
2402.67
2540.32
2918.1
2756.09
3155.48
3373.35
3755.51
3932.17
36.2724
52.9158
18.8322
353.751
319.259
138.811
182.626
9.43987
9.89058
10.9722
12.5608
8.75782
8.40961
8.88961
8.51868
8.51202
8.44529
8.50528
8.39268
12.1453
9.01807
11.2705
9.22236
9.7339
10.2537
22.5494
26.1
32.6107
39.5717
14.0639
16.6643
13.4133
18.0073
19.5344
44.3712
129.561
77.3213
89.8206
64.2144
55.7079
111.572
120.646
146.931
162.443
188.44
237.858
223.798
433.113
364.433
606.578
502.87
860.928
933.353
719.723
833.046
1038.67
320.718
294.834
276.902
1667.07
1136.15
1284.58
1463.73
1452.38
1528.69
1925.65
2087.28
2223.17
2422.8
2909.76
2525.38
3127.62
3304.98
3535.95
3776.47
3888.4
27.7552
62.7555
15.359
253.616
319.757
166.442
8.94914
9.95123
10.8069
12.8381
8.45945
8.32608
8.24101
8.63262
8.5513
8.38782
8.37032
8.35568
8.37523
8.26832
12.4336
11.5812
8.88076
10.7107
9.01974
9.37595
9.89049
21.4311
27.2347
36.9592
29.6291
14.079
16.9787
18.3261
46.8906
140.956
80.1837
94.7234
66.2882
61.4838
52.5358
114.334
130.713
173.573
199.456
260.065
226.563
418.516
355.785
665.907
557.682
959.034
992.187
768.538
886.665
1113.29
320.541
293.738
276.024
1699.25
1212.05
1389.92
1582.44
1534.65
1628.91
1813.04
2095.75
2168.8
2242.39
2702.18
2423.44
2813.12
3130.93
3521.89
3767.02
3938.84
29.9045
42.3201
16.5032
165.25
212.678
281.386
111.537
8.82806
9.55848
10.0445
11.6474
8.33627
8.1518
8.12967
8.54982
8.41886
8.32295
8.23904
8.20232
8.25112
8.12876
11.8611
11.0839
8.61057
10.6059
9.02258
9.3678
10.2228
9.62666
22.4832
25.4666
37.2731
30.3396
15.6039
12.9704
16.9322
18.6089
45.6961
143.351
74.7575
88.9496
108.576
64.271
55.0508
127.346
131.468
190.642
171.026
275.731
234.377
459.614
393.673
650.77
750.192
534.937
1009.16
1095.42
860.061
967.532
1219.21
343.932
307.082
297.864
1426.85
1607.08
1658.6
1575.35
1857.26
1976.65
2015.43
2159.88
2515.54
2248.9
2768.77
3176.09
2925.34
3350.86
3534.85
3773.93
3880.64
23.8003
48.5548
13.2542
156.445
294.516
134.215
8.47853
8.77079
8.95896
9.71091
12.3202
10.1186
8.15609
8.08497
8.10284
8.04404
8.41432
8.21489
8.12239
8.17016
8.12167
8.05118
11.1543
12.0674
8.47501
8.73063
9.087
10.1556
9.63777
21.0076
27.3187
32.8491
42.107
15.5075
13.2335
17.1692
51.6037
158.254
78.6009
91.953
116.41
60.223
75.5125
132.108
135.813
201.659
188.41
280.244
299.926
221.077
260.443
439.784
386.812
726.158
828.209
569.39
1098.53
1148.01
937.108
1009.85
1293.21
337.227
1528.19
1382.24
1715.69
1768.56
1668.48
1938.63
1992.12
2366.47
2200.82
2557.46
2996.89
2818.67
3363.69
3509.39
3689.76
3833.94
25.7466
33.3156
18.7823
37.253
210.42
249.84
84.4548
8.33511
8.4599
9.0598
10.9036
9.73322
8.16795
7.98964
7.9908
7.96505
8.33094
8.20719
8.11876
8.04862
8.07336
8.02602
7.96938
10.542
11.5641
8.35801
8.48161
8.501
8.80954
9.0965
9.50921
21.778
26.9385
33.0771
42.5176
16.3036
14.1321
12.2171
17.5575
54.2543
160.819
85.489
101.901
131.12
113.282
61.6187
78.771
150.365
191.565
306.392
329.184
230.918
271.964
498.506
415.874
719.694
822.074
934.298
647.623
1157.65
1235.83
1091.14
1281.87
355.527
1548.16
1441.48
1745
1809.22
1742.14
1932.41
2394.39
2078.82
2537.37
2978.78
2655.06
3136.74
3302.61
3329.56
3679.34
3915.35
36.274
18.9697
11.5873
199.402
265.332
103.48
8.29175
8.7457
11.4896
9.56726
8.98175
8.04536
7.93717
7.94029
7.91798
8.12338
8.03345
7.96684
8.01549
7.96841
7.92644
10.4664
10.9669
8.30612
8.37406
8.59844
8.81894
9.23552
9.64109
19.6422
24.793
29.4924
37.1355
48.2539
15.0375
14.1003
12.2479
16.7397
53.2908
177.02
94.7682
102.624
141.177
125.675
66.2738
85.0702
73.1222
164.245
207.193
329.854
314.609
252.399
222.77
305.486
506.985
456.874
407.912
784.614
914.197
1026.4
676.376
1149.44
1256.66
1130.01
1404.82
393.494
1614.08
1833.38
1824.57