/*--------------------------------*- C++ -*----------------------------------*\
| =========                 |                                                 |
| \\      /  F ield         | OpenFOAM: The Open Source CFD Toolbox           |
|  \\    /   O peration     | Version:  v1912                                 |
|   \\  /    A nd           | Website:  www.openfoam.com                      |
|    \\/     M anipulation  |                                                 |
\*---------------------------------------------------------------------------*/
FoamFile
{
    version     2.0;
    format      ascii;
    class       volScalarField;
    location    "10000";
    object      p;
}
// * * * * * * * * * * * * * * * * * * * * * * * * * * * * * * * * * * * * * //

dimensions      [0 2 -2 0 0 0 0];


internalField   nonuniform List<scalar> 
71770
(
357.039
356.654
354.433
348.746
334.944
327.017
320.501
314.864
310.72
310.639
311.882
290.076
356.017
353.35
354.669
354.652
354.659
353.35
353.35
353.35
353.35
353.35
354.669
354.669
354.667
354.668
354.666
354.669
354.669
354.663
354.669
354.669
354.669
354.669
309.439
355.897
355.936
356.489
356.417
356.32
356.193
354.115
353.99
353.828
348.158
354.21
356.027
353.621
347.96
355.983
355.996
355.963
356.985
356.956
356.543
356.915
356.858
356.783
356.682
356.582
354.282
354.334
348.313
348.434
348.527
320.442
356.015
356.013
356.01
357.027
357.032
356.005
357.019
356.627
326.798
320.315
314.679
310.426
357.006
356.609
354.37
334.706
334.849
334.877
334.812
326.968
326.942
334.766
326.859
326.906
320.411
320.37
314.781
314.738
310.517
356.651
354.41
356.017
357.038
357.037
356.652
354.428
354.425
354.42
356.652
354.395
356.017
357.038
357.038
357.038
357.038
357.038
356.654
356.653
356.653
356.653
334.914
327.006
334.925
327.011
320.496
334.932
320.463
320.493
326.998
326.986
320.487
320.478
348.732
348.723
348.708
334.939
334.936
327.014
327.015
348.74
348.737
354.431
354.43
348.743
348.742
334.941
327.016
320.498
348.684
320.499
320.5
356.654
354.433
354.432
354.432
354.431
354.433
348.746
348.744
334.944
334.943
334.943
334.944
348.745
348.745
348.744
334.943
334.943
327.017
334.942
334.942
334.941
327.016
327.016
320.501
320.501
320.5
327.017
327.017
327.017
327.017
327.017
327.017
320.501
320.501
320.501
320.501
314.864
314.864
320.501
320.501
314.864
314.864
314.864
314.864
314.832
314.845
310.662
314.858
310.707
314.861
314.853
310.698
310.684
314.811
310.629
310.713
310.716
310.63
311.862
310.613
310.624
311.848
314.864
314.864
314.864
314.864
314.863
314.864
310.72
310.719
310.718
310.72
310.72
310.634
310.72
310.72
310.72
310.72
310.72
310.72
310.637
310.636
311.877
311.87
311.875
310.638
310.638
310.638
310.639
310.639
310.294
310.398
309.974
310.155
311.095
289.765
310.53
311.5
310.475
311.326
289.857
311.628
289.927
310.57
310.405
310.793
311.824
290.059
290.036
290.05
310.596
311.783
290.013
311.72
289.977
289.646
289.492
289.297
255.159
255.092
255.223
255.332
255.281
289.048
290.064
255.448
255.407
255.431
255.458
255.465
255.374
311.879
311.88
311.882
311.881
311.881
290.074
290.075
290.068
290.07
290.072
255.473
255.469
290.073
290.074
255.476
255.478
356.016
357.035
356.017
357.036
356.648
356.645
356.638
356.017
356.017
334.898
348.648
348.596
310.583
309.739
309.911
356.017
356.017
255.486
247.692
247.608
247.745
247.771
247.75
247.749
247.748
247.747
247.746
247.755
247.752
247.767
247.76
247.775
247.778
247.744
255.481
255.483
255.484
166.719
165.387
183.179
163.258
166.447
165.122
176.025
166.916
165.067
152.831
156.443
158.464
185.067
164.194
157.816
165.511
157.959
154.212
150.748
191.213
201.073
162.257
170.256
160.386
159.586
155.804
151.236
147.531
147.233
175.756
174.413
167.201
167.845
162.65
164.698
147.575
146.646
150.387
145.45
148.874
150.018
146.914
144.114
142.819
158.3
152.725
158.73
143.178
141.374
147.281
149.515
151.409
141.461
149.75
144.766
142.029
138.897
153.343
165.61
152.759
147.953
155.967
155.717
143.888
142.343
143.263
146.437
137.836
139.182
147.78
136.597
135.82
137.162
136.399
166.911
169.701
166.038
148.637
152.121
146.61
137.977
138.136
143.496
139.258
139.941
143.94
140.749
143.951
142.28
139.783
134.74
132.951
199.156
155.279
173.722
173.551
146.435
165.237
146.267
143.14
135.375
135.4
141.22
138.33
136.2
142.085
137.338
144.133
135.489
133.012
132.991
127.437
165.168
174.389
147.542
147.851
143.944
134.337
144.775
136.043
132.525
132.935
134.298
134.576
134.648
142.365
135.335
133.861
129.632
124.048
125.424
170.927
169.453
147.659
142.03
146.611
133.005
137.346
129.028
127.353
124.369
129.664
131.404
129.919
130.259
129.71
132.54
128.127
136.656
130.458
128.276
123.867
124.33
118.271
155.811
164.932
154.569
153.961
142.008
139.092
126.603
136.723
128.09
127.601
124.948
122.325
131.325
126.225
129.301
131.736
130.238
132.754
131.019
127.829
128.986
119.286
115.925
115.842
178.653
139.712
148.199
145.732
128.385
134.356
132.514
119.602
125.975
120.219
122.275
119.635
124.319
122.281
121.729
130.296
130.766
125.703
130.425
126.969
118.825
118.525
113.03
109.779
173.184
126.862
150.059
138.656
120.426
129.051
119.455
117.894
122.604
123.205
116.725
115.733
127.164
117.019
116.862
132.62
121.347
119.79
122.162
120.754
121.03
119.278
117.533
106.743
105.445
106.233
156.729
138.534
139.588
135.422
116.786
123.856
127.369
112.212
114.476
117.385
108.627
109.495
107.836
120.074
121.043
114.57
129.973
118.846
125.202
115.166
123.983
119.149
118.429
107.893
110.611
104.33
99.0632
127.017
139.555
131.88
126.677
112.133
121.237
115.814
105.423
106.841
106.909
108.26
108.352
110.168
104.865
106.268
111.574
111.201
116.832
126
119.303
125.369
116.972
120.326
123.701
113.472
113.016
108.312
99.9327
98.4712
94.9875
150.883
140.832
130.749
136.919
122.816
112.193
113.97
98.3343
99.3248
106.147
105.212
107.674
100.604
95.4399
113.845
110.103
113.438
118.707
109.014
110.312
122.242
109.801
109.252
101.83
106.485
101.522
96.6969
90.1649
89.6964
120.616
137.97
126.186
123.791
107.814
101.163
109.398
93.087
96.7877
96.237
100.555
94.4352
91.2003
94.8643
98.1011
89.8184
94.4744
107.417
115.237
107.391
114.483
113.591
107.164
108.867
108.595
101.99
106.191
94.9563
93.9538
90.3601
83.2106
78.5716
152.109
133.019
113.449
111.315
120.186
101.526
100.151
90.5867
87.7306
89.1285
85.6569
105.738
88.3455
91.2546
89.7062
82.1636
87.5102
97.4717
99.991
111.612
110.729
97.3597
104.04
114.203
113.184
106.284
96.017
102.265
101.655
92.6907
92.6653
92.7777
83.2424
87.2043
136.617
121.361
158.549
104.822
112.022
99.5117
90.0961
85.2963
94.6161
82.6647
81.8611
84.6699
79.0144
79.3279
98.4869
92.7215
89.993
83.8652
82.3637
96.8536
104.455
97.1471
101.941
89.1139
108.193
106.94
106.478
101.556
100.463
99.929
92.2845
90.693
89.2407
76.5147
84.0669
71.8917
130.673
114.493
129.026
123.955
110.103
109.791
91.0885
81.8549
75.0313
76.5811
75.3025
70.5544
78.8259
72.2976
69.7942
89.1601
89.2045
84.4883
86.2898
78.1952
103.28
98.2531
98.1011
98.1991
104.86
104.239
97.377
96.8023
89.9937
89.4167
82.0576
77.4703
82.9547
74.107
72.6928
67.1261
127.315
122.409
116.821
98.1655
94.9416
97.9956
78.4752
74.5988
67.5027
70.9969
73.7785
68.0872
67.3139
66.2375
69.4224
86.8729
82.9456
78.0702
77.1072
74.5946
97.0353
90.6041
96.2164
100.286
100.253
103.691
97.8334
94.6975
86.688
83.0417
77.6619
82.2745
76.0099
67.72
63.7527
63.969
117.62
103.589
108.847
127.173
90.3877
90.0086
76.8859
83.3951
65.056
60.774
61.8388
62.5456
63.3424
64.4797
58.5495
60.5172
66.317
72.099
76.3403
75.3173
74.373
65.8675
77.8476
72.0791
89.3856
81.4124
92.4085
98.3037
94.6414
95.6387
96.5116
94.4682
86.2135
85.408
76.9275
73.0165
71.16
67.8092
61.6961
57.4924
102.685
108.552
96.5872
123.182
88.255
81.2025
70.8037
74.252
58.5669
51.2071
53.4157
57.2382
57.3683
57.9688
53.2077
56.409
56.3496
61.4309
79.0929
71.4685
66.8029
64.8137
87.3115
89.1851
80.9279
91.6774
88.9789
94.1751
85.7256
88.5028
83.1387
80.3064
70.9126
77.5615
74.5903
71.111
66.9194
59.8046
54.3604
52.7542
70.9535
105.808
100.366
128.638
80.9439
85.415
72.8299
60.6218
48.724
44.9634
46.9098
49.283
50.8807
46.3977
45.9757
47.5937
47.2196
54.3138
74.3756
62.7983
62.6047
64.774
56.7969
82.3153
83.4665
89.388
72.9451
88.2053
89.1891
88.7371
80.0311
79.7613
72.29
72.2661
69.5325
63.8237
57.7299
54.4659
48.1581
48.3196
114.626
109.503
91.3882
72.2873
64.445
63.9039
54.2316
45.4412
43.7032
36.8232
39.9903
42.0394
44.5973
41.6979
43.261
43.5498
47.6243
53.2098
69.7223
56.3597
54.3605
64.9163
67.7963
74.148
80.7486
67.1549
71.4941
84.5205
85.2664
82.3405
76.747
74.2087
66.349
64.6733
57.991
57.8431
51.9338
51.9465
46.9253
39.8406
98.5775
93.987
88.1978
74.3098
62.6471
57.9266
61.8938
56.6994
41.8329
36.3829
35.6034
28.8883
33.4857
33.7551
38.5094
34.754
37.7173
34.3463
41.4511
44.0231
62.1887
55.2094
52.5593
59.5195
62.7344
74.3292
76.5326
68.1444
67.1992
82.536
79.6232
74.3795
71.8935
69.028
62.3495
54.8205
51.9531
38.8701
37.613
36.0485
91.1022
122.691
88.0309
84.842
57.1324
48.6463
49.8766
48.945
35.7862
30.7559
29.2811
22.08
24.8594
21.7385
29.6527
27.7597
32.6122
30.9467
37.7219
43.5782
50.5451
45.9418
51.5313
59.2887
75.3101
81.9992
66.8042
59.2666
70.1929
78.1541
72.7824
73.0242
64.0018
65.451
62.151
58.5706
59.2263
49.8281
39.8635
51.0928
43.5339
35.5401
28.9083
100.569
102.187
81.4169
74.0684
63.6663
52.0006
60.6947
45.0533
43.8224
39.6519
29.1294
20.5801
23.205
15.3889
18.3283
16.9709
20.0628
19.4017
26.5456
26.3568
31.8791
39.511
37.3405
38.6076
44.2293
52.0072
54.2591
74.0572
54.6343
55.3615
65.2612
69.8411
74.8493
63.7778
59.2266
62.7345
56.7159
59.0768
52.5958
47.4724
46.059
40.8245
29.4798
25.6618
25.6424
111.634
102.347
90.635
64.8829
47.9177
35.4698
33.2835
31.1413
20.3857
24.1316
14.651
16.1663
3.47988
5.50412
7.94888
12.1914
13.1287
18.9117
23.0962
21.2747
20.0442
28.2372
34.0056
34.3148
39.1094
43.0197
46.4851
55.5772
70.5596
55.1776
62.7213
59.2216
66.6313
64.2628
60.6854
56.0266
57.7804
48.1319
39.1718
48.8445
30.3257
36.128
30.4735
24.2948
19.9864
105.89
70.7386
68.1447
84.8835
52.3729
41.1154
29.3684
30.5051
26.4411
13.6796
9.8703
9.83734
9.06132
-2.79365
0.486814
2.89339
4.55002
5.9204
12.7041
17.4544
17.5238
14.8293
22.3465
24.12
27.0077
32.8684
38.2337
35.4951
48.2017
68.8538
52.3956
55.4028
57.6615
65.5192
60.6211
54.3762
50.7049
52.6708
40.0551
45.9841
33.5609
38.0615
28.0808
17.1003
20.456
12.0302
91.8989
60.9696
85.6212
45.1283
52.2356
16.4796
22.9169
17.7448
5.76387
3.7153
4.31777
3.16387
-13.4026
-6.73773
-7.55579
-3.65492
1.97708
-7.36053
13.3715
5.54346
6.04419
17.6529
5.3937
23.3908
24.0543
21.7673
37.9577
36.54
46.1877
48.7693
53.4705
50.671
61.1669
50.0254
51.8509
50.5109
49.1421
38.2417
38.306
28.325
35.4746
20.9016
20.1349
14.2384
8.14361
8.67904
81.2724
56.0924
96.2445
37.7432
53.1871
40.5753
10.5106
12.2495
22.2106
14.8125
-4.38937
-6.2761
-5.68514
-3.60783
-17.8954
-10.2595
-11.6835
-9.98299
-8.33979
-5.4065
-10.1551
6.70029
2.26362
1.89588
2.86958
10.9399
5.03731
14.3451
17.9931
21.8556
17.6168
29.2843
39.6715
36.4721
44.7978
56.7672
46.0111
52.0452
45.6559
49.1003
39.5198
36.6339
27.1921
24.3722
21.2164
17.3878
13.8924
13.7542
7.89508
4.14858
96.7252
92.5905
60.643
66.9589
28.8896
47.0663
32.9573
-2.31805
3.24171
13.9561
4.85269
-15.0757
-3.65601
-15.9918
-8.82992
-27.0937
-16.93
-18.9061
-15.6758
-16.1973
-9.5078
-18.8055
-5.40793
-6.52285
-3.56853
9.66848
-4.81958
13.153
16.2487
9.3282
26.6518
34.7274
34.6309
40.8004
52.7414
42.3732
49.0622
39.742
37.9638
29.6112
31.0093
27.5949
30.5379
14.3855
12.7937
12.9708
0.657303
5.1701
-2.88554
71.4362
93.4504
58.5617
58.2892
20.926
52.4573
37.2878
23.8007
-8.58144
12.2978
5.88463
-5.68361
-22.5394
-22.7566
-25.245
-21.3335
-29.4486
-26.609
-27.7612
-26.5179
-25.8385
-21.5417
-26.8483
-17.4171
-21.6072
-8.30917
-9.76947
-9.65627
-0.501975
-6.99556
3.40134
11.418
16.022
3.29201
23.9053
28.1642
37.8726
34.7891
43.5055
40.698
40.7409
33.4443
26.5492
28.1217
22.4487
33.6352
19.4793
12.9979
5.99305
6.1351
-1.39566
-6.609
-6.63935
55.8948
98.9369
55.0764
60.9514
40.6229
32.8941
18.9235
-15.8353
6.28621
-4.46244
-13.6613
-29.1067
-25.5776
-32.3569
-26.217
-39.5089
-32.32
-34.3587
-34.7362
-40.6836
-29.5615
-34.6402
-20.3408
-34.4327
-16.0703
-14.6815
-18.3425
-1.68188
-15.2364
4.89503
16.4082
-3.95719
23.2816
31.494
31.163
42.2202
29.2402
39.2683
35.7651
14.5859
19.2816
16.0844
13.0586
0.101498
1.50342
-6.24352
-2.90345
-14.2468
-18.7253
133.258
60.8315
50.3325
72.6119
40.0397
25.0942
8.30923
-24.0367
-0.329544
-12.5
-4.97784
-23.5894
-41.2904
-35.2755
-39.7936
-35.8804
-42.6788
-38.4338
-41.7144
-41.9915
-42.3427
-42.7882
-37.9127
-40.8141
-27.8072
-41.1048
-35.9942
-21.9994
-24.9933
-11.2223
-19.0632
2.81753
-1.70294
16.2412
11.6745
-11.6997
19.7402
24.6753
26.49
35.8825
135.404
25.0037
29.6408
35.5375
18.0588
17.1553
13.8552
1.11019
0.614786
-5.04009
-1.80973
-16.4807
-7.57958
133.341
57.1487
56.9737
78.1184
59.2249
33.8288
21.5169
3.2204
-35.3327
-7.44837
-19.0732
-16.8679
-32.9861
-44.4561
-48.4899
-39.1397
-49.6457
-51.6011
-44.8407
-47.1361
-51.1877
-49.6925
-51.2466
-47.7484
-47.0237
-31.2013
-49.8947
-43.2168
-26.7839
-30.1756
-17.597
-27.3646
-1.8496
-6.58204
10.094
0.71734
-19.0177
21.0105
22.657
29.7769
28.1284
22.6843
16.1797
14.3746
22.1216
11.7841
4.86165
1.08086
-4.67699
-8.80764
-11.632
-9.24126
-25.0022
41.5955
70.6193
52.6645
29.9069
39.1088
16.4216
5.45653
-4.19086
-45.1018
-14.7121
-29.5233
-20.3691
-42.8748
-50.4646
-63.0872
-49.6399
-60.4513
-52.387
-52.9328
-61.5988
-58.2082
-57.2099
-57.273
-59.0141
-41.1944
-57.186
-48.4788
-44.3341
-40.4475
-24.1232
-30.9043
-6.95231
-4.62983
-16.67
2.75327
13.9054
-23.0612
17.8239
22.8392
22.1557
24.1487
26.6506
10.3373
22.2115
6.75499
4.25356
-3.29149
-4.83877
-10.7997
-10.3192
-19.5347
-22.6024
-27.8999
43.7695
54.0787
51.788
26.6103
31.4455
18.156
10.3833
-6.95484
-9.50352
-51.3106
-17.8957
-37.5332
-28.1538
-46.3263
-58.3996
-65.4887
-64.2621
-57.0526
-59.2711
-62.6674
-61.6662
-66.9751
-62.8634
-62.8633
-46.9601
-64.0271
-57.5583
-46.45
-44.443
-30.1248
-39.9221
-18.7199
-3.59842
-18.4063
2.72903
1.81723
-30.4949
12.9213
15.8711
23.1153
23.045
5.97157
6.54637
7.27128
2.2551
-0.466814
-6.65027
-8.61079
-7.01913
-25.1301
-22.5761
-26.2734
-30.1713
-31.2281
35.2242
56.6292
51.32
30.7166
14.1694
3.22686
-10.1129
-59.0541
-25.9643
-44.93
-35.0594
-33.0314
-54.696
-64.7634
-75.4346
-72.287
-65.8377
-70.2869
-70.7496
-73.2681
-82.2888
-71.6824
-69.5329
-67.5872
-59.4108
-68.1767
-65.6895
-62.8918
-52.1388
-52.5683
-36.9734
-47.898
-19.6593
-9.1535
-4.47168
-22.9526
0.923327
-37.6692
-31.4641
8.60786
19.4516
16.5625
14.159
4.12226
5.37614
14.7445
-0.865733
-10.6841
-10.354
-7.38308
-21.4426
-20.0675
-26.2109
-35.2101
-35.0592
33.8361
46.4984
61.3787
47.7622
60.96
22.9079
7.06631
18.4309
-4.52854
-17.8011
-66.2822
-25.6836
-51.8403
-49.6301
-40.9068
-65.869
-65.1109
-75.1417
-79.5713
-79.8509
-81.7619
-72.8336
-79.2246
-83.0154
-82.4477
-94.5349
-83.5226
-76.6349
-74.2612
-64.9603
-76.963
-74.2467
-72.2132
-60.1771
-53.4633
-46.9182
-21.9813
-15.2593
-5.59069
-32.9661
2.4231
-45.9879
-40.2749
12.91
3.84428
11.9302
11.5116
-2.30692
3.78198
14.7538
-8.09291
-11.8553
-11.3365
-20.3983
-22.4065
-21.1241
-29.9585
-32.5531
-35.9828
-41.1926
33.3031
37.3303
71.8598
37.3822
43.0214
21.7584
3.42306
12.9346
-7.58183
-21.0765
-76.6206
-35.2672
-62.4909
-53.7713
-50.3622
-42.1586
-69.3585
-80.3739
-91.7118
-90.3707
-95.2734
-80.9444
-83.8536
-91.0334
-94.031
-99.4251
-88.148
-87.0624
-73.5791
-85.9594
-91.7442
-82.9759
-82.5793
-73.0588
-60.0483
-49.7447
-28.2186
-22.3983
-12.0726
-2.66235
-40.8729
-33.0046
-46.8996
5.96002
1.09546
13.7131
7.55942
-1.70171
3.27778
3.05714
-5.58245
-16.3809
-15.8594
-14.9936
-22.3728
-27.2668
-30.8709
-32.7013
-42.6109
-43.8681
-39.6656
24.8282
39.7949
55.3503
40.5163
32.2119
44.3209
17.5422
6.26162
-3.5354
-14.2197
-29.7384
-80.7749
-37.0532
-66.9932
-65.1431
-58.0284
-53.0963
-75.7116
-89.8088
-96.0161
-97.4908
-94.538
-97.3998
-89.7032
-90.3748
-98.6007
-95.4333
-107.966
-94.1112
-94.682
-91.5665
-80.1622
-75.9983
-92.4776
-87.0242
-71.5413
-56.5624
-29.1469
-22.629
-14.4406
-7.05259
-50.35
-43.3033
-51.4732
0.467801
-1.79041
0.563237
0.427176
-9.6281
-5.76304
-1.05093
-10.8405
-17.2483
-18.7818
-13.9849
-29.0077
-22.9223
-26.4885
-30.0835
-40.2389
-30.8091
-40.235
-41.9857
-58.85
27.8579
32.1272
36.8135
30.4363
40.0758
14.9793
3.49308
-8.88019
-16.0941
-30.503
-87.9761
-46.4132
-74.0015
-69.9916
-67.3804
-54.2725
-80.7448
-93.7385
-105.447
-105.626
-104.759
-106.428
-107.775
-104.251
-120.394
-117.672
-105.82
-103.762
-104.101
-89.3863
-82.9891
-100.641
-95.3318
-70.5793
-62.6654
-36.0683
-25.6353
-18.4886
-15.0783
-50.4918
-45.6596
-60.0259
0.265777
-8.98295
-9.21823
-0.25128
-17.1868
-18.9293
-22.6326
-24.9835
-31.5852
-24.5281
-32.616
-42.7374
-33.3744
-43.9176
-46.8355
-51.588
-49.6451
19.7664
37.4871
41.191
26.2441
43.9629
46.4171
9.02475
-2.34375
-7.74308
-23.0572
-37.8111
-92.7457
-47.3703
-82.0587
-79.308
-69.9101
-62.656
-88.9972
-103.525
-109.623
-109.804
-111.618
-109.492
-117.704
-116.651
-110.461
-129.926
-128.703
-109.052
-103.614
-96.7826
-101.381
-86.5604
-93.7114
-103.912
-102.87
-78.8034
-64.9875
-44.9161
-36.6016
-29.0679
-17.8832
-53.4677
-49.3336
-63.2331
-2.46846
-7.51717
-11.6919
-2.16943
-15.6874
-22.3326
-28.2947
-36.2953
-35.4814
-40.672
-42.8004
-43.6996
-48.8861
-56.3539
-57.4368
16.9829
21.2542
36.1448
24.8886
33.2536
6.74262
-3.51548
-14.789
-22.7611
-38.7242
-101.582
-54.1752
-90.2196
-89.4631
-79.5361
-64.0215
-93.2325
-107.89
-118.951
-120.714
-124.269
-118.444
-125.697
-125.983
-121.448
-137.871
-137.475
-116.893
-114.402
-101.52
-96.885
-107.232
-113.298
-111.612
-83.5112
-76.0699
-48.8045
-42.3005
-35.6187
-24.4162
-17.7514
-58.3756
-53.1696
-70.1321
-9.55506
-11.1401
-11.1542
-23.9109
-27.1352
-36.4762
-32.6664
-38.9143
-39.2581
-36.5425
-44.8544
-48.4878
-50.3565
-58.2779
-57.9662
-62.936
9.68295
24.4076
36.9053
33.524
15.7526
40.9813
1.81269
-9.73507
-15.3896
-31.879
-46.2245
-109.084
-53.8888
-94.0088
-89.2991
-83.5183
-69.1292
-101.192
-116.238
-125.991
-122.862
-129.194
-120.923
-134.014
-136.751
-125.121
-149.02
-149.179
-123.646
-125.256
-128.697
-115.353
-106.817
-100.734
-117.764
-126.66
-122.382
-96.1382
-81.5021
-58.6888
-49.8291
-36.8791
-37.5654
-18.1227
-15.354
-63.1198
-60.7589
-78.7656
-69.2977
-20.1438
-26.0478
-25.6008
-39.5329
-36.7324
-42.206
-45.3954
-49.0037
-53.0948
-49.2737
-56.3055
-63.2025
-66.7646
-66.6217
6.15428
17.8
12.5395
37.7493
38.9194
0.492401
-10.8082
-19.5451
-32.9436
-48.2329
-106.861
-117.739
-60.7712
-102.587
-101.647
-77.788
-90.8785
-68.6162
-107.396
-137.212
-132.571
-135.123
-130.973
-148.355
-142.075
-138.115
-163.117
-162.54
-140.106
-135.738
-135.197
-123.803
-118.168
-108.577
-119.458
-130.066
-97.735
-89.548
-62.0696
-60.1738
-56.6043
-48.4804
-42.0035
-40.2375
-27.2095
-20.4784
-78.0283
-74.2313
-32.8946
-27.0283
-36.1156
-34.3354
-46.1361
-46.4898
-51.8966
-60.1718
-62.1644
-70.6015
-72.1988
4.16237
7.91982
10.7567
41.1369
36.4634
49.79
-7.15116
-17.3081
-25.6755
-36.8113
-56.122
-42.24
-118.725
-121.787
-61.7172
-106.553
-103.865
-85.5444
-97.4853
-92.1781
-73.7133
-117.084
-140.852
-138.119
-146.113
-138.28
-163.372
-152.694
-155.15
-143.673
-167.229
-166.417
-144.598
-145.653
-133.538
-119.128
-113.887
-129.534
-137.323
-101.636
-94.3201
-71.1922
-68.6165
-58.2696
-56.071
-49.8052
-34.6515
-37.0185
-23.0963
-84.2095
-33.6807
-27.9005
-39.1824
-38.6457
-45.9312
-47.1084
-55.5189
-58.6304
-61.9794
-73.5175
-73.1042
-78.6608
1.57233
18.2726
22.5999
24.2013
-10.6102
-19.4723
-29.4137
-37.3166
-57.5392
-50.8966
-121.647
-132.232
-71.4691
-115.209
-114.286
-83.5436
-102.937
-100.924
-119.467
-149.244
-148.689
-154.913
-149.59
-171.596
-167.981
-165.057
-157.757
-180.596
-179.5
-149.599
-155.279
-139.79
-123.674
-108.939
-120.591
-140.054
-136.584
-150.043
-99.922
-91.8066
-72.45
-70.3025
-63.8086
-56.7564
-53.4169
-43.4888
-33.3093
-41.597
-84.1515
-40.8733
-50.8192
-44.2825
-44.7176
-51.2112
-50.7962
-58.6314
-59.5721
-63.3183
-72.0397
-78.5102
-81.1905
-80.8888
-81.4984
-0.930492
8.15536
6.74166
13.8853
22.3914
-15.9954
-8.26487
-24.6361
-38.6985
-62.0245
-49.6644
-130.961
-137.383
-74.0451
-118.351
-117.52
-90.0074
-110.651
-104.468
-129.114
-152.459
-169.552
-152.249
-183.013
-175.656
-178.056
-166.798
-193.092
-187.207
-160.45
-168.968
-152.316
-131.625
-116.673
-127.6
-151.743
-145.96
-157.464
-106.377
-97.0934
-78.111
-74.477
-66.2221
-64.0636
-53.3514
-49.214
-36.1009
-41.6741
-90.244
-40.8978
-47.3611
-46.885
-41.8429
-49.7263
-57.0204
-54.4613
-58.7296
-66.1586
-74.5655
-70.7975
-73.9147
-81.1675
-87.601
-5.00607
2.37556
9.23514
31.1078
33.2083
-19.2797
-11.6744
-26.6445
-42.6658
-32.5232
-69.0715
-62.6091
-56.1058
-135.135
-149.773
-81.757
-132.162
-124.326
-90.381
-101.344
-115.268
-112.208
-136.51
-163.195
-174.496
-163.233
-185.327
-192.87
-184.159
-180.513
-208.633
-203.683
-171.93
-175.109
-161.731
-131.891
-124.966
-114.855
-161.563
-153.197
-149.4
-172.119
-104.487
-95.0873
-78.662
-77.2138
-64.2072
-63.6432
-50.488
-43.9564
-89.1442
-51.5133
-58.8124
-46.3725
-50.7066
-56.0333
-70.4088
-68.2006
-81.0259
-76.2822
-87.4375
-91.254
-90.3627
-4.80994
0.135415
-0.851351
17.1835
0.152836
16.5869
39.6319
26.9514
-16.318
-23.7792
-10.8516
-43.0766
-34.2373
-76.1181
-68.4125
-56.5473
-145.93
-153.287
-85.7473
-137.401
-123.292
-133.47
-96.6032
-107.737
-112.025
-146.348
-170.539
-191.813
-178.504
-197.005
-206.172
-198.584
-189.846
-222.416
-213.115
-209.207
-185.876
-187.129
-173.004
-140.155
-133.107
-115.825
-171.434
-162.694
-157.432
-112.78
-101.909
-84.4623
-79.948
-69.5807
-66.9896
-52.1906
-48.8115
-98.0005
-49.7032
-58.6394
-55.2768
-65.7042
-60.3173
-64.1912
-68.3406
-80.3493
-81.2845
-87.6596
-85.8423
-91.6493
-96.0216
1.04113
-6.12757
14.2279
7.82912
12.0286
15.3602
23.478
-22.0205
-25.5018
-12.7991
-46.8782
-38.0984
-30.076
-82.5323
-75.1891
-67.8548
-51.9495
-62.9822
-160.091
-94.1898
-147.76
-129.214
-134.721
-105.062
-118.987
-150.369
-182.909
-195.614
-201.047
-181.399
-191.145
-208.821
-220.798
-208.206
-201.981
-242.676
-230.796
-223.231
-194.36
-198.448
-181.835
-148.72
-145.657
-132.934
-123.69
-181.937
-171.553
-163.783
-157.217
-111.436
-100.922
-85.3207
-81.1696
-75.517
-74.5555
-67.6311
-60.024
-55.0187
-99.3666
-54.4102
-61.5599
-56.3546
-68.7878
-60.9728
-66.6243
-70.1086
-76.4987
-80.3123
-78.4665
-83.2331
-88.2845
-97.0628
-101.861
-100.673
4.50594
-3.01176
16.8458
7.79552
20.3464
-22.4267
-14.9587
-45.6116
-37.8703
-31.6536
-84.284
-80.6039
-78.4758
-57.0271
-65.0273
-159.929
-172.551
-95.7809
-151.456
-128.378
-144.323
-105.384
-123.216
-192.596
-211.523
-215.762
-187.87
-199.631
-219.684
-237.945
-222.989
-212.267
-245.802
-256.406
-234.226
-230.863
-208.637
-194.885
-214.593
-149.075
-143.859
-124.334
-188.658
-179.002
-170.829
-163.324
-114.261
-110.256
-93.0059
-84.1331
-80.6496
-79.7752
-72.9035
-69.1749
-62.4977
-101.212
-57.1375
-62.2894
-64.788
-63.2902
-74.8354
-78.006
-77.1648
-81.3866
-81.2283
-88.6417
-93.6684
-94.8546
-99.6683
-105.934
0.0915267
-5.07798
21.8722
12.3167
20.5323
-19.2833
-28.3294
-12.5647
-40.4232
-48.1221
-89.0425
-78.7991
-61.8389
-53.8984
-71.7748
-172.049
-179.379
-101.2
-162.227
-133.559
-149.331
-111.072
-120.365
-131.682
-203.479
-227.867
-214.091
-228.328
-188.044
-193.335
-206.769
-235.939
-254.633
-232.372
-225.835
-261.441
-269.417
-251.234
-250.457
-217.813
-207.532
-216.67
-157.395
-143.131
-134.668
-119.088
-187.726
-200.368
-178.374
-170.378
-112.831
-95.4712
-90.2193
-82.0809
-76.5108
-74.8691
-66.9906
-108.51
-102.499
-61.1708
-63.7071
-70.6215
-73.9808
-85.4422
-85.8329
-91.9941
-89.8429
-95.5619
-99.2776
-105.14
-109.832
-108.56
1.15391
-8.3497
11.5537
5.45161
12.5125
24.1148
-23.4623
-30.1446
-16.1091
-36.3309
-45.8513
-92.0797
-82.9184
-63.8281
-60.8203
-71.9492
-171.841
-103.857
-161.813
-143.729
-118.126
-122.306
-136.404
-240.258
-238.035
-248.938
-194.218
-208.483
-222.733
-251.543
-256.149
-246.162
-239.161
-265.169
-273.21
-284.789
-259.822
-255.413
-234.832
-210.343
-225.386
-162.852
-148.502
-135.773
-115.404
-195.946
-209.931
-185.247
-175.521
-93.7356
-86.0609
-82.7662
-80.6426
-74.913
-70.9865
-115.332
-105.797
-68.7959
-71.3497
-68.307
-76.5962
-88.4971
-83.7477
-85.3313
-90.6804
-100.811
-101.773
-102.771
-110.536
-116.05
-1.36186
-9.12771
17.0704
0.317949
9.21036
20.5788
-27.7891
-20.5639
-14.6614
-40.1478
-48.2161
-98.1797
-88.4453
-84.5941
-69.5151
-60.3283
-77.7737
-178.494
-108.042
-165.846
-149.289
-114.709
-127.417
-145.984
-134.197
-253.257
-239.119
-258.674
-205.478
-188.653
-223.856
-227.609
-272.854
-246.691
-279.376
-292.855
-304.15
-289.977
-277.76
-273.559
-241.216
-219.62
-228.443
-238.522
-173.774
-162.673
-146.306
-156.239
-124.669
-139.865
-206.534
-193.693
-217.886
-183.621
-93.5832
-91.5283
-82.2814
-80.506
-72.5632
-114.006
-124.814
-108.627
-104.491
-73.3073
-77.7298
-83.3716
-88.3775
-82.986
-95.9679
-92.9678
-99.4044
-104.814
-120.14
-119.825
-118.894
-6.09859
-2.86137
17.0004
10.2811
18.0357
-28.9142
-23.8664
-16.2854
-37.4591
-53.0623
-45.9544
-103.087
-95.3413
-85.7604
-70.2341
-63.5263
-82.4273
-176.173
-108.558
-162.442
-120.525
-127.982
-149.504
-143.552
-264.775
-244.692
-281.501
-209.039
-222.502
-200.538
-240.833
-242.443
-287.992
-262.952
-292.972
-306.055
-309.565
-304.253
-280.346
-278.195
-254.32
-239.583
-244.709
-181.391
-173.504
-158.614
-162.189
-128.894
-139.06
-212.439
-196.69
-229.841
-192.158
-98.8334
-91.7671
-96.253
-88.62
-79.5212
-117.939
-130.749
-111.75
-108.196
-84.6914
-86.0543
-90.929
-97.3463
-102.178
-97.4486
-111.744
-107.689
-118.441
-111.635
-117.973
-125.046
-9.77484
0.25158
-6.43401
15.9991
8.10744
17.5303
-31.5005
-21.4558
-13.9886
-40.8318
-55.788
-48.801
-100.434
-94.0221
-89.0172
-66.6323
-79.7529
-61.0769
-187.321
-114.219
-166.943
-119.16
-133.257
-161.074
-147.164
-259.115
-282.287
-291.116
-220.019
-225.695
-199.245
-243.526
-300.227
-272.27
-309.376
-319.841
-328.466
-297.464
-287.937
-268.379
-264.968
-241.454
-258.044
-182.918
-191.861
-176.466
-158.925
-172.429
-142.434
-206.404
-224.171
-233.649
-90.807
-98.648
-88.1584
-123.603
-120.211
-132.755
-116.469
-109.252
-101.413
-98.9955
-88.3722
-98.3736
-96.789
-104.468
-114.255
-109.718
-109.078
-113.131
-125.217
-128.597
-128.565
1.05304
-6.17995
7.65688
6.92467
20.343
-30.0166
-24.8463
-15.4948
-37.9229
-52.9574
-45.9703
-106.063
-97.6102
-88.4802
-66.8974
-81.1451
-63.0344
-186.546
-112.567
-175.995
-125.708
-131.384
-143.034
-165.737
-158.857
-276.095
-299.663
-312.132
-228.983
-233.578
-208.6
-256.849
-316.159
-287.332
-324.053
-313.133
-332.512
-340.294
-343.361
-310.674
-303.821
-280.052
-275.925
-252.442
-260.207
-189.548
-198.385
-186.006
-155.024
-168.246
-174.46
-139.54
-210.951
-226.786
-245.262
-97.0361
-97.5296
-129.913
-127.501
-135.204
-121.485
-114.989
-108.27
-95.8706
-98.2535
-100.455
-108.044
-105.215
-115.694
-125.232
-118.686
-122.779
-131.111
-135.041
-1.86686
2.50428
-8.54071
14.8274
12.1985
14.6368
-33.1391
-24.0215
-19.7244
-11.7488
-40.5924
-53.9174
-50.2543
-103.409
-95.8394
-89.6083
-71.0834
-77.0819
-59.4862
-204.277
-119.39
-174.204
-125.825
-137.083
-143.467
-158.762
-273.269
-295.828
-313.535
-325.141
-244.484
-221.902
-245.508
-270.5
-338.823
-297.846
-345.474
-328.273
-349.704
-353.803
-351.208
-327.382
-316.849
-293.3
-285.124
-253.065
-271.371
-197.871
-206.215
-191.177
-159.014
-172.316
-181.048
-144.741
-219.642
-233.842
-247.004
-102.346
-129.576
-127.591
-137.308
-118.339
-113.478
-104.026
-99.6884
-103.608
-105.456
-108.27
-114.801
-122.102
-121.99
-125.971
-137.068
-134.002
-139.512
-1.85285
0.38948
-7.42586
9.54697
13.8237
3.56851
11.7253
-30.7771
-26.4032
-20.7811
-13.6839
-39.2992
-49.6663
-109.092
-97.8239
-84.5825
-72.0142
-80.0297
-61.4584
-206.371
-117.866
-180.527
-133.486
-152.959
-167.748
-293.528
-302.687
-334.909
-346.753
-240.697
-252.32
-232.844
-265.461
-292.038
-352.851
-314.265
-353.932
-345.528
-360.256
-367.851
-336.189
-330.878
-304.576
-300.726
-284.618
-267.804
-274.653
-203.391
-213.21
-188.869
-200.603
-161.425
-152.997
-180.972
-168.44
-144.036
-227.542
-239.674
-251.219
-101.703
-137.102
-131.511
-115.433
-130.495
-111.573
-104.637
-106.695
-111.522
-118.147
-126.405
-119.944
-132.495
-134.353
-139.317
-142.87
-142.699
-3.72542
2.47005
-9.29522
10.4481
8.10178
4.87467
-33.7643
-24.8403
-17.2344
-12.4636
-41.7061
-45.3845
-53.2881
-108.301
-102.67
-92.2519
-86.5729
-66.604
-78.1209
-58.4879
-225.139
-197.499
-124.198
-180.79
-129.451
-152.195
-176.881
-300.364
-324.926
-350.718
-342.317
-253.246
-263.483
-295.322
-371.623
-315.355
-369.973
-367.086
-380.198
-386.869
-380.384
-361.583
-335.021
-309.024
-293.266
-270.035
-286.778
-210.236
-223.001
-193.934
-204.657
-162.403
-155.963
-182.861
-174.122
-147.115
-235.505
-247.791
-260.353
-106.392
-134.838
-133.658
-117.988
-129.839
-111.625
-107.069
-110.316
-118.534
-120.253
-131.453
-121.878
-125.946
-136.092
-138.056
-143.695
-149.254
-2.85777
-0.407573
-7.36832
16.7297
13.0202
6.44373
2.20929
-32.5373
-24.937
-20.6267
-13.7267
-40.0418
-46.4199
-53.6099
-111.107
-104.289
-99.6048
-84.3179
-68.8501
-79.0693
-61.2589
-221.46
-201.527
-122.154
-192.396
-138.626
-162.496
-189.642
-173.617
-324.719
-336.523
-378.133
-360.276
-278.741
-256.911
-281.01
-316.007
-398.668
-328.19
-386.688
-373.597
-373.785
-405.94
-404.565
-368.902
-349.527
-304.894
-321.44
-273.346
-294.49
-216.755
-229.216
-202.38
-191.414
-212.949
-165.016
-154.223
-180.459
-170.644
-147.774
-241.18
-256.457
-262.541
-135.593
-125.642
-115.818
-131.407
-112.174
-112.812
-115.723
-125.519
-131.879
-128.261
-132.881
-140.806
-140.555
-138.66
-148.168
-152.65
-152.993
-4.4665
1.32319
-8.62467
10.1718
5.12551
4.91701
-36.0618
-27.8053
-25.4383
-19.8542
-10.929
-16.1546
-40.8203
-49.5211
-43.4511
-55.3864
-107.668
-98.5954
-83.7503
-75.0906
-65.8411
-59.1895
-211.614
-238.138
-124.613
-142.269
-163.356
-193.355
-186.655
-330.78
-353.085
-379.302
-398.92
-287.58
-270.206
-312.208
-412.586
-331.41
-411.375
-391.848
-392.638
-414.021
-412.174
-371.196
-365.241
-312.461
-321.62
-287.165
-270.046
-307.689