/*--------------------------------*- C++ -*----------------------------------*\
| =========                 |                                                 |
| \\      /  F ield         | OpenFOAM: The Open Source CFD Toolbox           |
|  \\    /   O peration     | Version:  v1912                                 |
|   \\  /    A nd           | Website:  www.openfoam.com                      |
|    \\/     M anipulation  |                                                 |
\*---------------------------------------------------------------------------*/
FoamFile
{
    version     2.0;
    format      ascii;
    class       volScalarField;
    location    "10000";
    object      timeScale;
}
// * * * * * * * * * * * * * * * * * * * * * * * * * * * * * * * * * * * * * //

dimensions      [0 0 1 0 0 0 0];


internalField   nonuniform List<scalar> 
71770
(
7.49515e-09
7.49502e-09
7.49493e-09
7.49512e-09
7.49534e-09
7.49535e-09
7.49535e-09
7.49535e-09
7.49527e-09
7.4945e-09
7.49429e-09
7.49503e-09
7.49524e-09
7.49534e-09
7.4953e-09
6.14453e-05
4.67494e-05
1.66229e-07
4.25027e-07
1.75427e-06
9.12009e-07
4.77384e-08
4.77381e-08
3.13304e-06
1.89731e-05
1.30392e-05
2.63252e-05
8.51096e-06
5.2906e-06
3.53545e-05
1.66228e-07
4.25026e-07
9.12022e-07
1.75438e-06
0.000362518
0.000135477
0.000104722
0.000106111
0.000136812
0.000175199
0.000223057
0.00013884
0.000177767
0.000225978
0.000231598
0.000107531
0.000282529
0.000285536
0.000292292
6.16608e-05
4.69632e-05
8.0554e-05
6.20409e-05
8.10448e-05
8.16801e-05
0.000105204
0.000135729
0.000174149
0.000222326
6.24065e-05
8.25387e-05
6.28206e-05
0.000182091
0.000141846
0.000109347
0.00018059
1.30549e-05
1.90144e-05
2.64136e-05
2.64595e-05
1.90268e-05
3.55083e-05
3.56278e-05
3.56574e-05
0.000379239
0.000380269
0.000377922
0.000371465
4.72012e-05
4.7358e-05
4.74722e-05
0.000374503
0.000184807
0.00014297
0.000236144
0.000140997
0.000183833
0.000298671
0.000301331
0.000236793
0.0002343
0.000300346
0.000229963
0.000296589
0.000289834
8.50927e-06
2.63426e-05
9.1202e-07
3.13324e-06
5.29171e-06
5.28969e-06
8.49503e-06
1.30028e-05
1.89253e-05
3.13272e-06
3.56111e-05
4.25022e-07
1.66224e-07
4.77371e-08
4.25017e-07
9.12008e-07
1.75439e-06
1.66221e-07
4.25009e-07
9.1198e-07
1.75428e-06
8.26806e-05
6.04038e-05
6.20606e-05
4.52555e-05
4.45398e-05
4.63908e-05
0.00013776
5.91594e-05
8.05588e-05
0.000106994
7.86095e-05
0.000104294
1.87376e-05
2.60594e-05
3.53108e-05
2.5585e-05
3.45906e-05
3.38983e-05
2.52128e-05
8.46032e-06
1.29108e-05
3.1317e-06
5.28547e-06
3.12918e-06
5.27505e-06
1.84795e-05
1.83096e-05
3.35207e-05
4.73145e-05
2.50297e-05
1.82312e-05
4.77363e-08
4.77357e-08
4.25001e-07
9.11944e-07
1.75407e-06
1.66219e-07
4.77369e-08
9.11891e-07
1.66227e-07
9.11832e-07
4.25008e-07
4.77384e-08
4.25005e-07
1.66223e-07
1.7536e-06
3.12649e-06
1.7531e-06
5.25894e-06
5.26366e-06
8.42067e-06
1.27979e-05
8.40164e-06
1.27346e-05
5.25704e-06
8.39358e-06
1.27067e-05
4.25006e-07
9.11808e-07
3.12551e-06
1.75293e-06
4.77384e-08
1.66227e-07
1.66227e-07
4.77384e-08
4.25005e-07
3.12514e-06
3.12487e-06
5.25573e-06
9.11801e-07
1.75287e-06
9.11794e-07
1.75282e-06
4.25005e-07
1.66227e-07
0.000134438
0.000101937
0.000130826
5.83074e-05
5.75556e-05
4.40885e-05
7.71204e-05
7.57223e-05
9.95789e-05
0.000176488
0.000171495
4.37261e-05
3.3142e-05
1.27307e-05
1.26973e-05
2.50064e-05
1.82558e-05
1.82469e-05
2.49199e-05
8.38825e-06
1.26889e-05
1.8183e-05
3.32932e-05
4.77384e-08
1.26916e-05
1.81747e-05
2.48706e-05
8.39096e-06
5.25689e-06
8.40618e-06
3.12519e-06
1.75288e-06
9.11795e-07
4.77378e-08
1.66225e-07
4.25001e-07
3.12627e-06
5.26158e-06
3.12442e-06
8.38695e-06
5.25463e-06
9.11748e-07
1.753e-06
4.24961e-07
4.77329e-08
1.66208e-07
0.000128143
9.8206e-05
0.000217511
0.000167101
0.000131034
0.000104842
5.75127e-05
7.75974e-05
7.52087e-05
0.000101032
7.97208e-05
5.92522e-05
6.00202e-05
4.38756e-05
0.000219304
0.000169616
2.51485e-05
1.24606e-05
2.45669e-05
1.78145e-05
3.33201e-05
3.38181e-05
3.32917e-05
4.49349e-05
4.48216e-05
0.000136599
0.00017673
0.000227614
0.000141009
0.000183396
0.000107257
6.01439e-05
8.0693e-05
0.000292157
8.28886e-06
1.75838e-05
3.29102e-05
2.42222e-05
1.23493e-05
8.25092e-06
4.45545e-05
1.75262e-06
9.1168e-07
4.77315e-08
1.66203e-07
4.24946e-07
1.66218e-07
4.77363e-08
5.2229e-06
3.11628e-06
1.75103e-06
3.11493e-06
5.21387e-06
9.11489e-07
4.24958e-07
1.75098e-06
9.11528e-07
8.51589e-06
1.30568e-05
5.29189e-06
8.51579e-06
1.30405e-05
1.89987e-05
2.64361e-05
3.13331e-06
1.75442e-06
0.000109302
6.30353e-05
8.34076e-05
0.000223789
0.000281892
0.000282907
4.77376e-08
1.66226e-07
7.49495e-09
6.53869e-05
8.88397e-05
4.73682e-05
3.39254e-05
1.74576e-06
9.10848e-07
4.24958e-07
1.66233e-07
4.77378e-08
5.1275e-06
3.08998e-06
1.19501e-05
8.02989e-06
1.7145e-05
2.41763e-05
7.49497e-09
4.24968e-07
1.66218e-07
4.77358e-08
0.00407175
0.00335089
0.00208954
0.00342269
0.0032162
0.000992936
0.00270015
0.00324877
0.00365719
0.00309088
0.00336324
0.000991641
0.00221906
0.00350613
0.00373091
0.00369717
0.0032951
0.00352085
0.00322278
0.000977073
0.00112517
0.00305877
0.00355081
0.00400946
0.00389506
0.00332195
0.00364298
0.00328921
0.00322808
0.00108351
0.00143209
0.00346299
0.00382688
0.00407188
0.00420648
0.00393749
0.00412797
0.00341621
0.00355489
0.00383044
0.0034071
0.00328542
0.00320567
0.00150132
0.0038525
0.00383153
0.00440154
0.00420335
0.00443895
0.00414178
0.00428161
0.00360963
0.00391451
0.00349023
0.00338893
0.00325653
0.00318816
0.00178906
0.00284215
0.00398302
0.00431221
0.0047228
0.00453996
0.00474595
0.00422031
0.00447523
0.00368774
0.00381541
0.00410519
0.00347952
0.00343866
0.00337821
0.00325728
0.00320465
0.00172948
0.00330008
0.00387047
0.00460743
0.00522026
0.00478933
0.00528741
0.00439798
0.00474842
0.00454535
0.00366043
0.00387702
0.0041594
0.00357406
0.0035585
0.00338364
0.00326376
0.00320004
0.00233413
0.00239941
0.00358008
0.00425292
0.00513386
0.00459874
0.00576788
0.00528638
0.0057819
0.0044637
0.00497162
0.00477955
0.00373189
0.00401194
0.00432945
0.00367574
0.00344301
0.00337065
0.00328484
0.00319213
0.00241192
0.00233173
0.00408274
0.00555817
0.00511681
0.00635842
0.00567852
0.00635305
0.00465361
0.00529322
0.00485212
0.00403164
0.00435355
0.00366936
0.00354753
0.00339053
0.00326521
0.00327722
0.0032259
0.00323347
0.00228696
0.00442283
0.00617251
0.00540886
0.00696619
0.00654059
0.00555691
0.00616261
0.00642562
0.00685165
0.00470945
0.00541157
0.00514992
0.00392581
0.00421665
0.00451507
0.0037824
0.00362975
0.00347818
0.00333184
0.0032853
0.00318621
0.00315267
0.00430731
0.00226742
0.00511206
0.0067456
0.00636733
0.00759308
0.00736173
0.00600629
0.00637268
0.00709705
0.0073362
0.00497028
0.00575654
0.00522793
0.00400444
0.00427366
0.00447245
0.00375707
0.00360061
0.00345383
0.00339112
0.00327131
0.00321162
0.00245181
0.00404473
0.00498733
0.00544112
0.0074159
0.0068371
0.00783225
0.0082186
0.00604859
0.00678959
0.00728721
0.00807419
0.00509522
0.00579967
0.00552239
0.00387435
0.00415714
0.00454112
0.00371216
0.00353545
0.00349236
0.00338803
0.0032813
0.00320032
0.00238504
0.00425725
0.0052778
0.00631607
0.00821583
0.00779424
0.00858339
0.0089246
0.00637115
0.0067923
0.00780471
0.00858737
0.00550277
0.00497411
0.00609918
0.00385277
0.00419912
0.0043905
0.00474407
0.00371588
0.00364984
0.0036139
0.00348599
0.00342506
0.0032899
0.00322442
0.00296665
0.00494057
0.00537326
0.00680619
0.0089814
0.00847945
0.00845488
0.00982893
0.0063474
0.00711448
0.00787627
0.00830907
0.00941368
0.00574828
0.00512113
0.00610079
0.00392698
0.0040869
0.00442151
0.00485464
0.00385967
0.00370677
0.00361033
0.00350958
0.00344959
0.0032965
0.00319358
0.0030016
0.00531174
0.0061329
0.00786395
0.0100019
0.00966044
0.00949373
0.0105475
0.010126
0.00659336
0.00695675
0.00758655
0.00848697
0.00878071
0.00977627
0.0057173
0.00538421
0.00647128
0.00413325
0.00453888
0.00424961
0.00479921
0.00394498
0.00387492
0.00371468
0.00367255
0.00357665
0.00345832
0.00327092
0.00319128
0.00400336
0.00333301
0.00599072
0.00649
0.00866517
0.0104614
0.0110664
0.0119355
0.0115138
0.00737004
0.00777335
0.00868099
0.0092697
0.010382
0.00613594
0.00536133
0.00650621
0.00449277
0.00425144
0.00500368
0.00393245
0.00383355
0.00376788
0.00357821
0.00373739
0.00348908
0.00338622
0.00327486
0.00320571
0.00429477
0.00330325
0.00637562
0.00780824
0.010414
0.0119533
0.0130921
0.0126128
0.0131768
0.0118686
0.00739543
0.00809977
0.00841185
0.00921374
0.00969495
0.011075
0.0102689
0.00623782
0.00554849
0.00703075
0.00464501
0.00414197
0.00493603
0.0039608
0.00394054
0.00374068
0.00388119
0.00358815
0.00344855
0.00340423
0.00328163
0.00318696
0.00371917
0.00553498
0.004149
0.00765841
0.00861776
0.0115859
0.0133353
0.0158245
0.0145218
0.0151436
0.0132032
0.0079875
0.0088408
0.00961508
0.00929862
0.0119429
0.0106659
0.00677011
0.0060315
0.00577024
0.00530091
0.00709486
0.00461802
0.0041711
0.00510615
0.00407579
0.00379402
0.00387347
0.00403723
0.00372065
0.00355164
0.00351465
0.00341756
0.00321791
0.00406513
0.0053573
0.00581784
0.00859401
0.0103831
0.0150849
0.0164264
0.0200169
0.0172266
0.0158249
0.0153334
0.0170137
0.0144747
0.0130649
0.00820158
0.00878974
0.0102904
0.00979911
0.0115739
0.00693765
0.00620846
0.00584686
0.00537981
0.00755504
0.00486888
0.00437543
0.00433003
0.00399615
0.00401645
0.00412816
0.00380609
0.00359619
0.00351456
0.00349704
0.00329874
0.00318196
0.00408667
0.00603706
0.00506849
0.00871854
0.0114955
0.0123089
0.0156001
0.0195038
0.0245947
0.0224797
0.0182768
0.0176601
0.0203294
0.0160722
0.0141772
0.00801386
0.00908106
0.0103892
0.00973681
0.012017
0.00749216
0.00658322
0.00574093
0.00528201
0.00487881
0.00448298
0.00412965
0.00429657
0.00394197
0.00370754
0.00365305
0.00345925
0.00364795
0.00328081
0.00324752
0.00316333
0.00428813
0.00538489
0.00743383
0.00536861
0.0115075
0.0139703
0.0193717
0.0228538
0.0288513
0.0256223
0.0210557
0.0192548
0.0182085
0.0158229
0.0140283
0.00852402
0.00890223
0.0111043
0.0101916
0.0129828
0.00765535
0.00663261
0.0058948
0.00545869
0.00502891
0.00471554
0.00434324
0.00409427
0.00400151
0.00376081
0.00353988
0.0037408
0.00344336
0.00336719
0.00324639
0.00319333
0.00420079
0.0059392
0.00812357
0.00462329
0.0122761
0.0183181
0.0253352
0.0204567
0.027403
0.032772
0.029381
0.0323649
0.0246261
0.0232222
0.0202046
0.0177118
0.0147004
0.00846443
0.00922276
0.0111246
0.00997819
0.013285
0.00746312
0.00815489
0.00627137
0.007111
0.0056448
0.00528572
0.00503415
0.00482343
0.00453349
0.00421272
0.0039219
0.00409752
0.00365392
0.00386932
0.00347095
0.00338243
0.00326263
0.00317503
0.00492128
0.00713
0.0101599
0.00614634
0.0178892
0.0222862
0.0302575
0.0265181
0.0296341
0.0360074
0.0340176
0.0364002
0.0276969
0.0247809
0.0230942
0.019778
0.0174488
0.0161743
0.00903094
0.0119605
0.0104936
0.0130812
0.0081543
0.00635168
0.00708996
0.00569394
0.0054003
0.00478045
0.00456098
0.00442028
0.00402457
0.00413882
0.00371149
0.00389034
0.00401558
0.00363097
0.00350288
0.00338907
0.00325786
0.00318686
0.00499745
0.00774584
0.0118476
0.00601305
0.0164805
0.023984
0.0289658
0.0352512
0.0333957
0.0392609
0.0355628
0.0404499
0.0307003
0.0285788
0.0261511
0.0215756
0.0186146
0.0163677
0.00919777
0.011911
0.0113165
0.00993751
0.0138728
0.00835513
0.00671535
0.00601369
0.0073807
0.00529882
0.00498087
0.00485577
0.00452054
0.00436712
0.00402012
0.00424928
0.00365384
0.00349977
0.00345024
0.00339575
0.0032818
0.00320342
0.00530307
0.00627152
0.0100706
0.0215904
0.0325583
0.0343711
0.0394171
0.0340846
0.0411115
0.041295
0.0393815
0.0453323
0.0306935
0.0292795
0.024922
0.0206347
0.0178374
0.0153958
0.00888421
0.01293
0.0117625
0.0100691
0.00823678
0.00673819
0.00606103
0.00787542
0.0071178
0.00545171
0.00496587
0.0048153
0.00445822
0.00425587
0.00399655
0.00381018
0.00362433
0.00358589
0.00349586
0.00346825
0.00327904
0.00316338
0.00522215
0.00650529
0.0108356
0.0157056
0.0316296
0.0360851
0.0385838
0.0398295
0.0456524
0.0366142
0.0453561
0.0453724
0.0410957
0.0486482
0.0351613
0.0308722
0.02717
0.0223078
0.0180715
0.0162277
0.00926889
0.0129951
0.0114673
0.0105182
0.0089337
0.0064532
0.00576185
0.00806634
0.00721807
0.00524442
0.00498281
0.00470981
0.00441412
0.00419141
0.00379847
0.00362452
0.00359222
0.00344956
0.00326263
0.00317949
0.0067953
0.00573383
0.00851635
0.0172557
0.0348779
0.0454191
0.0439351
0.0451974
0.0500479
0.0393988
0.0472129
0.0476738
0.0457392
0.0521536
0.0366186
0.0349474
0.0297746
0.0259086
0.020973
0.0158264
0.0139257
0.0119608
0.0104127
0.00895537
0.00643722
0.00578562
0.00771068
0.00844001
0.00680574
0.00539204
0.00527042
0.00494167
0.00476777
0.00434936
0.00463173
0.00422292
0.00396129
0.00375287
0.00357317
0.00374467
0.00345605
0.00325037
0.00314482
0.00679005
0.00634831
0.00822128
0.0111002
0.0267984
0.0445152
0.038034
0.0488587
0.0491857
0.0502963
0.0577925
0.0419448
0.0519826
0.0520963
0.0472665
0.0555477
0.0405722
0.0373044
0.0312263
0.0289972
0.0217592
0.0169151
0.0137668
0.0128746
0.0110915
0.00995954
0.00936768
0.00599131
0.00792245
0.00843855
0.00676307
0.00547354
0.00529548
0.00512699
0.00451593
0.00473348
0.00416365
0.00446523
0.00392378
0.00376898
0.00384233
0.00356134
0.00339674
0.00323913
0.00316984
0.00634509
0.00638365
0.0114656
0.0284655
0.0436174
0.0586568
0.0555734
0.0554956
0.0604712
0.0597082
0.0455078
0.0541694
0.0553575
0.049422
0.0613253
0.0428125
0.0406587
0.0351047
0.0299927
0.0286477
0.0256303
0.0199651
0.018431
0.0151913
0.0127722
0.0110221
0.010303
0.0089436
0.00585358
0.00773289
0.00636453
0.00716446
0.00536976
0.00526221
0.00499673
0.00435895
0.00456182
0.00411224
0.00384376
0.00406512
0.00352274
0.00375004
0.0034073
0.00323804
0.00313493
0.00695091
0.00655565
0.0175995
0.00828653
0.0376279
0.0502467
0.0651647
0.0617366
0.0610165
0.0696959
0.067423
0.0487547
0.060057
0.0599597
0.0537034
0.0666704
0.0467069
0.0419712
0.0362143
0.0307522
0.0284326
0.0255367
0.0211435
0.0186387
0.0157587
0.0135962
0.011444
0.0101607
0.00899121
0.00603243
0.00801332
0.00647906
0.00692128
0.0057707
0.00558883
0.00507108
0.00434404
0.00482294
0.00407965
0.00419486
0.00369294
0.00384331
0.00355022
0.00340836
0.00324072
0.00312494
0.00674913
0.0152751
0.00948311
0.0501605
0.0431548
0.0746712
0.0725342
0.0700601
0.0772883
0.0745337
0.048987
0.062772
0.0641168
0.0572686
0.0717637
0.0487551
0.0399199
0.0452975
0.0335241
0.0379541
0.0308329
0.0229417
0.0274822
0.0181002
0.0152435
0.0133252
0.0109506
0.00959247
0.00854964
0.00765896
0.00618814
0.00708758
0.00584238
0.00570102
0.00548871
0.00462557
0.00488904
0.00425119
0.00442392
0.00371184
0.00401773
0.00355843
0.00341928
0.00322723
0.0032187
0.00314747
0.00701882
0.0201471
0.00900254
0.0598174
0.0340016
0.0544589
0.0829913
0.0777933
0.0768409
0.0842571
0.0867471
0.0817407
0.0528784
0.0696718
0.067404
0.0623849
0.0789846
0.0477818
0.0527206
0.0419037
0.0450957
0.0341
0.0371198
0.029678
0.0332393
0.0230311
0.0261344
0.0194636
0.0162422
0.012302
0.0150139
0.0111355
0.00947613
0.00874564
0.00788599
0.00617007
0.00685092
0.00557745
0.00466566
0.00525855
0.00449807
0.00422103
0.00395106
0.00408031
0.00376236
0.0035083
0.00338878
0.0033881
0.00321699
0.00310962
0.00751293
0.0100644
0.0155392
0.0105124
0.0718277
0.0424417
0.0610132
0.0950563
0.0903268
0.0929927
0.0984482
0.0953548
0.0940642
0.0915005
0.071597
0.0719339
0.0640268
0.086539
0.0511545
0.0541753
0.0410588
0.0474285
0.0388687
0.0312381
0.0347104
0.0215312
0.0271982
0.0179047
0.0126138
0.0151878
0.0105693
0.0097687
0.0084079
0.00754783
0.00640661
0.00709421
0.00595938
0.00504747
0.00529684
0.00474761
0.00442146
0.00398531
0.00435053
0.00382151
0.00368217
0.00354303
0.0033751
0.00321432
0.00310351
0.00766801
0.0117035
0.0208636
0.0086511
0.0828496
0.0359798
0.0552762
0.0763203
0.109093
0.0953652
0.103129
0.113808
0.110976
0.110541
0.0986256
0.0773445
0.0759725
0.070367
0.0620995
0.0951214
0.0858525
0.0514187
0.0596139
0.0427631
0.0465623
0.0378181
0.033888
0.0304429
0.0225499
0.0261796
0.0186306
0.0139539
0.0114902
0.0173246
0.0107824
0.00943917
0.00846774
0.00779669
0.00631391
0.00674857
0.00607786
0.0050769
0.00555651
0.0047079
0.00416636
0.00453999
0.00407292
0.00372596
0.00354553
0.00338834
0.00320057
0.003192
0.00311762
0.00759388
0.00976647
0.0159041
0.00959768
0.0476711
0.0588636
0.089403
0.123632
0.111389
0.120305
0.131989
0.118352
0.121593
0.110512
0.0820686
0.0798494
0.0716971
0.0675517
0.102644
0.0943625
0.0557777
0.0605641
0.0418737
0.0490218
0.0393993
0.0374502
0.0320198
0.0212978
0.0285922
0.0141205
0.0113712
0.0177646
0.00996816
0.00881121
0.00759303
0.006675
0.00591406
0.00547672
0.00482714
0.00439412
0.00454909
0.00422789
0.00394089
0.00378223
0.00352818
0.00335102
0.00335411
0.00320049
0.00309074
1.37935e-07
0.00914554
0.021407
0.00910984
0.0408617
0.075342
0.107895
0.143293
0.129163
0.136283
0.131433
0.148616
0.134157
0.140055
0.118514
0.0861951
0.0843848
0.0783082
0.0694632
0.113016
0.100389
0.0937259
0.0561506
0.0659628
0.0431976
0.0525779
0.0467243
0.0384251
0.0343394
0.0221546
0.0277931
0.012958
0.0159605
0.0103755
0.0119276
0.0200379
0.00981367
0.00862692
0.00802631
0.00701028
1.57529e-07
0.00627521
0.00554072
0.00505224
0.00448524
0.00494808
0.00418777
0.00397103
0.00376612
0.00349276
0.00348349
0.00335025
0.00312686
1.06277e-07
0.0102958
0.0171315
0.00933244
0.0104489
0.0518089
0.0793244
0.121951
0.160465
0.146445
0.160592
0.158778
0.172315
0.142895
0.138965
0.154977
0.129109
0.0893715
0.0795323
0.075127
0.118875
0.111744
0.0962073
0.0613749
0.0661567
0.0418623
0.0539301
0.0479712
0.0373902
0.0340805
0.024258
0.0312979
0.0132828
0.0159812
0.0101546
0.0113995
0.0200324
0.00911399
0.00786065
0.00680927
0.00606486
0.00530971
0.00508272
0.00470742
0.00503998
0.00441662
0.00422493
0.00392805
0.00360517
0.00348824
0.00339225
0.00322131
0.00305917
0.024623
0.0104938
0.00975923
0.0664869
0.0476385
0.095352
0.130877
0.146075
0.18458
0.173352
0.181062
0.17869
0.193731
0.163288
0.154541
0.171717
0.136564
0.0871469
0.0788876
0.128932
0.115994
0.102511
0.0617266
0.0702141
0.0443446
0.0580876
0.0504598
0.0405317
0.0359026
0.0242661
0.0302189
0.0143071
0.0120833
0.0177067
0.0106728
0.00953819
0.0220653
0.00898596
0.00837927
0.00722371
0.00618751
0.00545139
0.00467823
0.00529714
0.00437349
0.00434699
0.00415053
0.0037796
0.0036793
0.0035313
0.00319946
0.00313246
0.00302744
0.0196101
0.00942126
0.0112699
0.0744838
0.0616126
0.0873642
0.120448
0.16409
0.171071
0.194966
0.189163
0.205452
0.214276
0.216502
0.174113
0.168169
0.152918
0.0872022
0.0777705
0.130681
0.113608
0.103362
0.0667858
0.0755264
0.0434431
0.0584447
0.0509327
0.0392017
0.0350724
0.0269466
0.0333274
0.0144847
0.0116923
0.0168955
0.0102787
0.00945848
0.0221054
0.00833832
0.00706155
0.00578515
0.00668097
0.00488418
0.00531056
0.00556093
0.00449454
0.00435107
0.0042336
0.00384052
0.00370034
0.00357546
0.00345312
0.00326208
0.00311274
0.00305141
0.0244139
0.014
0.0108324
0.0676124
0.0983108
0.139181
0.184288
0.204424
0.222526
0.225285
0.22374
0.243438
0.233636
0.198529
0.184322
0.161474
0.0922905
0.0807935
0.136992
0.124827
0.115412
0.098431
0.0679533
0.0781695
0.0453643
0.0637469
0.054689
0.0485945
0.0402955
0.0363258
0.0269483
0.0323619
0.0134389
0.011981
0.0104843
0.0179442
0.00892806
0.0244063
0.0207434
0.00799596
0.00726224
0.00583916
0.00680009
0.00476188
0.00520053
0.0056956
0.0046872
0.00452349
0.00404212
0.00389158
0.00384748
0.00346465
0.00326271
0.00314515
0.00306448
0.042427
0.0198973
0.0163148
0.0127122
0.011951
0.0842918
0.128585
0.0948639
0.172079
0.228402
0.225407
0.248387
0.25443
0.256356
0.286738
0.231523
0.258948
0.213633
0.178575
0.206518
0.158654
0.0885723
0.132973
0.14674
0.124562
0.118084
0.101429
0.073663
0.078182
0.0436333
0.0643574
0.0548625
0.0507048
0.0410275
0.0344846
0.0305561
0.0134759
0.0112303
0.00981382
0.0172611
0.00884679
0.0251115
0.0216316
0.00754537
0.00830084
0.00629413
0.00670794
0.00488841
0.00540549
0.00590801
0.0047646
0.00456489
0.00407452
0.00395658
0.00400559
0.00361427
0.0033702
0.00332846
0.00313646
0.00301935
0.0443577
0.0276439
0.0144329
0.0120052
0.0126401
0.090483
0.153621
0.10014
0.19039
0.255823
0.238458
0.301887
0.272984
0.295011
0.305079
0.319031
0.266637
0.22966
0.193958
0.221194
0.172937
0.0943456
0.146881
0.138429
0.107319
0.129519
0.0750866
0.0827173
0.0444992
0.0617189
0.0677848
0.0578886
0.0504992
0.0398061
0.0344166
0.0295249
0.0141972
0.0117692
0.0101232
0.00903282
0.020116
0.016002
0.0231966
0.00738379
0.00802436
0.00623347
0.00703822
0.00520601
0.0057354
0.00589016
0.00520252
0.00428911
0.00481538
0.00427326
0.00428635
0.00383513
0.00352486
0.00347672
0.00329467
0.00311961
0.00304917
0.062005
0.0249673
0.0195004
0.0122167
0.0146276
0.0168805
0.0966704
0.132612
0.183414
0.234847
0.31002
0.267785
0.335099
0.317212
0.336157
0.356775
0.357563
0.27933
0.242979
0.213305
0.185643
0.236948
0.162856
0.0942329
0.148342
0.140179
0.10573
0.131911
0.0803321
0.0726046
0.0895721
0.0477918
0.041584
0.0655528
0.0560319
0.0369558
0.031204
0.013116
0.0111961
0.00950905
0.00859047
0.0206452
0.0165416
0.0231503
0.00756357
0.00821806
0.00645536
0.00689078
0.00536776
0.00593509
0.00627888
0.00533836
0.00514296
0.00472269
0.00446504
0.00443508
0.00443508
0.00390218
0.00369251
0.00345194
0.00367481
0.00329991
0.00318076
0.00299535
0.0653118
0.0374024
0.0136066
0.0138039
0.0169201
0.101512
0.148726
0.215167
0.256057
0.346304
0.284537
0.388869
0.343102
0.384872
0.397172
0.403449
0.317479
0.270262
0.224616
0.192833
0.248658
0.165501
0.154622
0.107194
0.146227
0.126337
0.0818034
0.0759384
0.0940241
0.0483874
0.0410302
0.0660913
0.0574011
0.0348203
0.0308592
0.0136247
0.0117423
0.00992586
0.00872955
0.0191495
0.0151457
0.0237551
0.00724977
0.00796822
0.0058008
0.00638871
0.00574406
0.00540263
0.00489105
0.00473373
0.00437011
0.00470673
0.0040969
0.00365022
0.00385703
0.00342215
0.00339024
0.00315813
0.00303581
0.0841689
0.035263
0.014243
0.01853
0.0135501
0.0303003
0.125913
0.189284
0.227277
0.306471
0.401702
0.324004
0.427456
0.3839
0.412202
0.456974
0.458761
0.345811
0.292395
0.239209
0.214465
0.18246
0.276331
0.157282
0.11666
0.0998934
0.149116
0.137728
0.0879691
0.0736402
0.046867
0.0501506
0.0383352
0.0439157
0.0624342
0.0547848
0.0349298
0.0274647
0.0129314
0.0109824
0.0095006
0.00826827
0.0192199
0.0155589
0.0219046
0.00719336
0.00753391
0.00604281
0.00673425
0.00577264
0.00522441
0.00497897
0.00462966
0.00406503
0.0038446
0.00362718
0.00359493
0.00342328
0.0031126
0.00301259
0.0928581
0.0543594
0.0227158
0.0179096
0.0149041
0.135106
0.211852
0.288856
0.338844
0.454134
0.341326
0.486135
0.40047
0.444053
0.508433
0.500665
0.383988
0.319232
0.248304
0.222226
0.189146
0.292592
0.177275
0.114628
0.10299
0.160731
0.136524
0.0899655
0.0755729
0.0489844
0.0383473
0.042997
0.0631316
0.0586166
0.032238
0.0283824
0.014109
0.0117827
0.0101273
0.0089083
0.00811286
0.0204884
0.0165571
0.0219975
0.00728868
0.00648864
0.00676286
0.00598441
0.00540993
0.00490936
0.0052385
0.00451672
0.0042386
0.00411899
0.00375081
0.00360287
0.00346001
0.00330222
0.00309726
0.00297617
0.11941
0.050776
0.0317413
0.0158065
0.0231325
0.0234436
0.175444
0.262815
0.30525
0.414604
0.524624
0.367899
0.532012
0.444627
0.494305
0.556099
0.56273
0.406341
0.33731
0.235985
0.275812
0.213021
0.325179
0.179879
0.123219
0.100052
0.160376
0.148171
0.0879166
0.0805839
0.0715174
0.0491125
0.0412608
0.0358628
0.0455149
0.065786
0.0578651
0.0330818
0.0260257
0.0140352
0.0114731
0.00966572
0.00892661
0.00832713
0.00751001
0.0191434
0.016505
0.0225306
0.0201192
0.00668486
0.00584004
0.00645108
0.00516616
0.00541129
0.0047084
0.00417715
0.0039863
0.00379152
0.00370454
0.00347134
0.00326261
0.00308428
0.00300155
0.124039
0.052258
0.0152894
0.0276982
0.0415774
0.197501
0.296025
0.364658
0.450273
0.573493
0.394748
0.366711
0.589587
0.466019
0.547546
0.582149
0.599452
0.594358
0.447409
0.243195
0.286228
0.226536
0.337266
0.197254
0.119169
0.106907
0.172427
0.147462
0.0936138
0.0808517
0.076033
0.0546099
0.0412358
0.0359949
0.0449887
0.0628954
0.0304934
0.027143
0.0155424
0.0132622
0.0121375
0.0106359
0.00981998
0.00844065
0.00783074
0.0072705
0.0205868
0.0189277
0.00605682
0.00681721
0.00511223
0.00581551
0.00450698
0.00405045
0.00371538
0.00345316
0.00328888
0.0031155
0.00298975
0.170661
0.142041
0.0802053
0.0200277
0.0221195
0.0428321
0.260869
0.351697
0.432819
0.558585
0.652617
0.601158
0.419446
0.391367
0.648607
0.519684
0.574409
0.643287
0.600881
0.652979
0.664092
0.473679
0.266741
0.315301
0.228482
0.368026
0.190405
0.216025
0.124632
0.100855
0.165894
0.137174
0.0874074
0.0768316
0.0557951
0.0386125
0.0340359
0.0452515
0.0627029
0.0302376
0.0252415
0.0161943
0.0135727
0.0114069
0.010647
0.00921725
0.00791915
0.00837975
0.00750275
0.0200549
0.00654043
0.00725532
0.00531725
0.00597847
0.00456732
0.00427574
0.00392162
0.00367304
0.00346996
0.00335911
0.00308927
0.00294841
0.168708
0.111781
0.0201175
0.0211697
0.302278
0.39644
0.487883
0.565229
0.724544
0.690863
0.448846
0.393171
0.699286
0.544445
0.597704
0.689153
0.658596
0.686467
0.522479
0.274127
0.327498
0.255861
0.368449
0.209981
0.226014
0.116214
0.104612
0.167596
0.137803
0.0866308
0.0721036
0.0542539
0.0381374
0.0310479
0.0348699
0.0493313
0.0416456
0.0661306
0.026548
0.0226425
0.0150096
0.0125232
0.011528
0.0100019
0.00940784
0.00862567
0.00752531
0.00774337
0.0169545
0.00679291
0.00519985
0.00572102
0.00647036
0.00484582
0.00428013
0.00414644
0.00386912
0.00365854
0.00349268
0.00347689
0.00332256
0.00307269
0.00297008
0.183758
0.163223
0.0507865
0.0222575
0.0262696
0.39096
0.306651
0.477385
0.630842
0.791592
0.751467
0.462402
0.429609
0.764025
0.580667
0.647542
0.75099
0.674134
0.731397
0.540543
0.311538
0.262245
0.399192
0.21289
0.240882
0.122754
0.0987769
0.184263
0.148726
0.0887162
0.076032
0.0581398
0.0387953
0.0289949
0.0335573
0.0483691
0.0417357
0.063522
0.0247801
0.0209259
0.0151659
0.0124331
0.0107368
0.0100262
0.00871717
0.00826057
0.00750159
0.00744855
0.0164914
0.00722499
0.00554369
0.00599691
0.00650237
0.00479299
0.00446347
0.00436762
0.0040654
0.00392337
0.00374133
0.00374445
0.00334199
0.00306101
0.00292283
0.244001
0.188831
0.0682917
0.0205881
0.0238869
0.445735
0.390406
0.536887
0.730992
0.621787
0.806997
0.850388
0.844932
0.51324
0.437879
0.809158
0.599942
0.683821
0.793483
0.764886
0.72759
0.758897
0.571174
0.321147
0.293123
0.396782
0.239539
0.205796
0.1169
0.103349
0.178009
0.146801
0.0842727
0.0715553
0.0565208
0.0362572
0.0306979
0.0260409
0.0520735
0.04443
0.038928
0.066354
0.0226015
0.0179622
0.0133361
0.010979
0.00938872
0.00860158
0.00769116
0.00742414
0.0145069
0.00584308
0.00556957
0.00674603
0.00507723
0.00434224
0.00408163
0.00396371
0.00386768
0.00349245
0.00326166
0.00304283
0.00295627
0.280158
0.183556
0.254997
0.0417595
0.10958
0.022371
0.0217536
0.0479545
0.468021
0.530067
0.373022
0.79196
0.674869
0.883182
0.922426
0.913098
0.528305
0.504452
0.877687
0.645677
0.738473
0.681331
0.862933
0.832553
0.832254
0.573822
0.351831
0.298604
0.44056
0.249544
0.219726
0.120439
0.0961529
0.193206
0.162401
0.131778
0.0872794
0.0737836
0.0613258
0.0362772
0.0295919
0.0239139
0.0509298
0.0436144
0.0384923
0.0212777
0.0170347
0.0130734
0.0105523
0.0093491
0.00798383
0.00741676
0.00716224
0.0139832
0.00596712
0.0054778
0.00655258
0.0050313
0.00453181
0.00439398
0.00425031
0.00417386
0.00376407
0.00343514
0.00327763
0.00305421
0.00291743
0.228674
0.305306
0.0452058
0.142037
0.0203726
0.0209585
0.0486455
0.552019
0.601494
0.38975
0.893791
0.764669
0.667374
0.901286
0.922824
0.977128
0.938546
0.989468
0.526927
0.907696
0.657044
0.771625
0.742386
0.872189
0.855355
0.601007
0.354948
0.329012
0.280862
0.489705
0.419386
0.235619
0.212488
0.110243
0.0991215
0.18844
0.157731
0.131133
0.0818744
0.0699885
0.0602275
0.0341523
0.0312757
0.0264036
0.023494
0.0544561
0.0461473
0.0402542
0.0352395
0.0185005
0.0154531
0.0116506
0.0108373
0.00983024
0.0087975
0.00797875
0.00754124
0.00732202
0.0123542
0.00621967
0.00573872
0.00684667
0.00478452
0.00551477
0.0045842
0.0045373
0.00430452
0.00442254
0.00389101
0.00368019
0.00348071
0.00328675
0.00304466
0.00294607
0.200955
0.281539
0.0247208
0.0757891
0.0279322
0.611937
0.480271
0.942247
0.799868
0.733483
0.980754
0.984335
1.02451
1.01945
1.05247
0.588066
0.519631
0.960977
0.705616
0.821924
0.750563
0.93827
0.90598
0.38471
0.339993
0.283335
0.516895
0.449406
0.250465
0.227838
0.111689
0.0921331
0.173003
0.200979
0.141361
0.121316
0.0845063
0.063725
0.073033
0.0287931
0.0252217
0.0203372
0.0519652
0.0447894
0.039235
0.0338983
0.0173953
0.0152742
0.0114798
0.00992296
0.00954808
0.0090184
0.0082095
0.00752182
0.00716052
0.0118606
0.00613415
0.00676901
0.00490327
0.0055733
0.00481369
0.00466542
0.00474365
0.00437876
0.0041208
0.00370383
0.00348879
0.00332089
0.00304585
0.00289571
0.246197
0.309363
0.0245139
0.0834272
0.0260869
0.615123
0.736412
0.508735
0.885031
1.02457
1.00731
1.08446
1.06846
1.05897
1.10609
0.622355
0.579213
0.981545
0.71582
0.855378
0.797371
0.958778
0.934963
0.908418
0.384131
0.328017
0.365781
0.30408
0.578321
0.497454
0.42318
0.244044
0.221425
0.103673
0.0950747
0.165924
0.194138
0.13915
0.120713
0.0795856
0.0618703
0.0671661
0.0294507
0.0222508
0.01978
0.0177659
0.0467001
0.0538009
0.0413452
0.035809
0.0144783
0.0105199
0.0098537
0.00874985
0.00775795
0.00742286
0.00717589
0.0125776
0.0104338
0.00639458
0.00524721
0.00592324
0.00520657
0.00501742
0.00462702
0.00418832
0.00402016
0.00375101
0.00354817
0.00326358
0.00302912
0.00293594
0.232789
0.40378
0.0253309
0.179591
0.0431874
0.03576
0.712818
0.834309
0.627644
0.923095
1.06774
1.06719
1.12042
1.1296
1.12481
1.14832
0.685481
1.04301
0.783714
0.838719
1.00533
0.995219
0.932138
0.348165
0.375449
0.28961
0.62951
0.512881
0.433666
0.25653
0.240646
0.104166
0.0891123
0.147663
0.176114
0.200524
0.128883
0.111951
0.0815243
0.0576815
0.0662312
0.0281637
0.0212215
0.0176696
0.0155997
0.0443328
0.0505055
0.0398037
0.0345819
0.0102261
0.00923595
0.0081014
0.00771657
0.00699239
0.00673609
0.0118791
0.00980495
0.00632215
0.00536222
0.00585619
0.00551273
0.00493998
0.00539514
0.00452756
0.00405474
0.00378367
0.00352795
0.00328631
0.0030412
0.00288497
0.284173
0.464294
0.0246832
0.0800383
0.0430535
0.0312845
0.832158
0.726842
0.609768
1.01204
1.13666
1.07478
1.11435
1.1543
1.16474