/*--------------------------------*- C++ -*----------------------------------*\
| =========                 |                                                 |
| \\      /  F ield         | OpenFOAM: The Open Source CFD Toolbox           |
|  \\    /   O peration     | Version:  v1912                                 |
|   \\  /    A nd           | Website:  www.openfoam.com                      |
|    \\/     M anipulation  |                                                 |
\*---------------------------------------------------------------------------*/
FoamFile
{
    version     2.0;
    format      ascii;
    class       volVectorField;
    location    "10000";
    object      U;
}
// * * * * * * * * * * * * * * * * * * * * * * * * * * * * * * * * * * * * * //

dimensions      [0 1 -1 0 0 0 0];


internalField   nonuniform List<vector> 
71770
(
(0.132863 0.0059697 -2.92828e-23)
(0.136644 0.00463589 4.38706e-23)
(0.143682 0.00285503 -1.52487e-17)
(0.157882 0.000831662 -3.75102e-18)
(0.167011 0.000439802 1.8013e-18)
(0.166798 0.000361076 0)
(0.167072 0.000279319 0)
(0.166783 0.000187064 8.46657e-19)
(0.163099 8.57534e-05 -3.1868e-24)
(0.158376 -0.00128349 -6.68224e-18)
(0.17631 -0.00639223 2.68353e-17)
(0.213718 -0.0113444 2.49597e-17)
(0.131473 0.00704761 -3.0634e-17)
(0.134558 0.00836656 -6.08092e-17)
(0.132123 0.00783317 3.0518e-17)
(14.05 0.828069 2.2701e-16)
(12.5296 0.739257 3.89862e-21)
(0.786157 0.0488563 -2.42832e-22)
(1.21292 0.0753536 -2.92007e-22)
(2.34048 0.145288 -2.19869e-16)
(1.7253 0.107146 1.83328e-16)
(0.430679 0.0267722 0)
(0.422954 0.0250727 -5.32667e-17)
(3.02742 0.179293 1.32245e-16)
(7.62829 0.451056 -4.95542e-16)
(6.1862 0.365965 4.39027e-16)
(9.23148 0.545535 5.28208e-16)
(4.94519 0.292672 -1.87829e-16)
(3.90015 0.230907 -1.58107e-16)
(10.9011 0.643743 -5.26189e-16)
(0.772181 0.0457688 -6.39171e-17)
(1.19158 0.0706164 1.53384e-16)
(1.69534 0.100451 0)
(2.30048 0.136277 -1.6807e-21)
(24.291 -0.169364 0)
(17.7863 0.950115 8.25572e-20)
(16.6211 0.888789 0)
(16.7411 0.587008 4.43979e-20)
(17.8868 0.629797 0)
(18.9499 0.670156 7.3659e-20)
(19.943 0.70859 1.38164e-16)
(18.1575 0.409432 0)
(19.2009 0.440352 3.53399e-20)
(20.1767 0.471185 6.67452e-17)
(20.7124 0.209145 0)
(17.0321 0.378034 8.8264e-17)
(20.8758 0.745565 -2.53483e-16)
(21.0959 0.502314 -6.13783e-17)
(21.5994 0.23452 -1.46007e-17)
(13.9658 0.747972 -2.26923e-16)
(12.4552 0.667386 2.48188e-16)
(15.3522 0.821659 0)
(13.9827 0.633266 -2.25421e-16)
(15.357 0.696049 2.03828e-16)
(15.4962 0.541213 4.91269e-20)
(16.616 0.753626 -4.50275e-20)
(17.7751 0.806683 1.67701e-16)
(18.8489 0.855898 -1.53448e-16)
(19.8488 0.901875 0)
(14.1345 0.491815 -2.22973e-16)
(15.806 0.345728 -1.9581e-16)
(14.4589 0.312068 2.17654e-16)
(19.7705 0.186058 -1.74806e-17)
(18.7609 0.16496 1.9184e-17)
(17.6659 0.145585 5.0869e-21)
(21.2326 0.0555751 4.08075e-18)
(6.15261 0.329863 -6.71216e-21)
(7.58628 0.406708 2.48665e-16)
(9.17964 0.49209 -2.64852e-16)
(9.22231 0.416588 -3.23014e-20)
(7.62953 0.344367 0)
(10.8381 0.580907 -6.43257e-20)
(10.8759 0.491708 3.20655e-20)
(11.0394 0.381564 1.58887e-20)
(23.4739 0.1286 0)
(23.8299 0.0926529 0)
(24.1107 0.0534915 -3.02766e-18)
(24.2791 0.00326021 2.98339e-21)
(12.4838 0.564904 -3.01329e-20)
(12.6444 0.438441 2.44876e-16)
(12.9766 0.276729 -1.19889e-16)
(23.0235 0.177239 -2.52967e-20)
(20.4402 0.113985 8.29741e-21)
(19.4494 0.0977383 0)
(21.3558 0.132513 0)
(19.9012 0.0674874 -4.40147e-21)
(20.9071 0.0792095 -3.97079e-21)
(22.2129 0.153519 -6.68512e-21)
(22.6759 0.109532 6.69495e-21)
(21.8256 0.0931446 7.19574e-21)
(22.1709 0.0656097 -3.70653e-21)
(23.031 0.077884 0)
(22.4203 0.035412 -5.4032e-21)
(23.3002 0.0433344 3.33377e-18)
(23.444 -0.000205947 9.75161e-21)
(5.06644 0.173458 0)
(9.69599 0.202659 -1.29859e-16)
(1.6867 0.0904258 9.23607e-17)
(3.0375 0.136766 1.01424e-21)
(3.91069 0.176175 0)
(4.00353 0.136832 0)
(5.28026 0.108029 -9.36813e-17)
(6.57527 0.135362 -1.09221e-16)
(8.06379 0.16718 1.2271e-16)
(3.11279 0.106226 0)
(11.3693 0.239874 1.28228e-16)
(1.18558 0.0635581 -1.53969e-16)
(0.776069 0.0348882 -2.45212e-22)
(0.425203 0.0191098 -5.1111e-23)
(1.19719 0.053837 0)
(1.70266 0.0765957 0)
(2.30937 0.103932 8.46348e-22)
(0.797457 0.0270939 1.83767e-22)
(1.22956 0.0418113 -7.71218e-17)
(1.74763 0.0594888 9.25245e-17)
(2.36865 0.0807229 -4.2199e-22)
(17.1547 0.0712329 -4.48867e-22)
(16.1325 0.0424885 -1.54519e-21)
(15.8009 0.0604495 1.2733e-17)
(14.5606 0.0363323 0)
(14.7011 0.0269528 0)
(14.2837 0.0509107 0)
(20.1966 0.0474761 -9.02475e-18)
(16.3084 0.0310505 1.48074e-21)
(17.5367 0.0494861 0)
(18.7856 0.0576931 -2.50191e-21)
(17.7528 0.0356063 0)
(19.0432 0.0409517 5.0038e-18)
(8.62916 0.0536016 3.00339e-17)
(10.3167 0.0662328 -3.16937e-17)
(12.026 0.0802346 -1.86845e-21)
(10.8415 0.0346826 3.03798e-17)
(12.6112 0.0423586 -1.49876e-17)
(12.8337 0.0307343 0)
(11.0127 0.0255772 1.47817e-17)
(5.70378 0.0336021 2.30157e-17)
(7.0721 0.0427034 -2.67959e-17)
(3.25537 0.0659097 6.60587e-17)
(4.18035 0.0850541 7.89456e-17)
(3.53989 0.0200211 1.21491e-22)
(4.532 0.0261257 -7.42293e-22)
(9.08517 0.0279368 -2.87892e-17)
(9.2099 0.0209152 -1.40203e-17)
(12.945 0.0230927 -7.10723e-18)
(13.6495 0.0951935 7.17141e-21)
(11.0993 0.0194072 7.2034e-18)
(9.27494 0.0159805 -4.22166e-22)
(0.437112 0.01484 5.11109e-23)
(0.459321 0.00914701 1.60676e-23)
(1.29017 0.0258269 -3.83202e-17)
(1.83209 0.0367949 -4.59722e-17)
(2.4804 0.0500029 5.14025e-22)
(0.837417 0.0167165 6.38742e-17)
(0.50407 0.0026763 5.09543e-24)
(2.0015 0.0109746 -1.13079e-17)
(0.970649 0.0025878 0)
(2.11593 0.00574476 5.43005e-18)
(1.49298 0.00401332 1.76225e-23)
(0.533146 0.00141186 -2.96285e-24)
(1.41196 0.00764662 -1.76229e-23)
(0.917833 0.00491763 7.85602e-18)
(2.70402 0.0150414 1.35604e-17)
(3.74012 0.0104291 -1.56016e-17)
(2.85791 0.00785332 -4.68813e-24)
(4.82033 0.0105709 -9.09758e-18)
(4.78616 0.0135856 1.55279e-22)
(6.01971 0.0174604 2.20955e-17)
(7.45652 0.0222038 -4.26848e-22)
(6.07524 0.0134249 3.16073e-24)
(7.54212 0.0168544 1.25349e-17)
(4.84195 0.00815678 0)
(6.10732 0.0103378 -8.29199e-23)
(7.58865 0.0129383 -1.85514e-22)
(1.49489 0.00324024 8.83852e-18)
(2.121 0.00460317 -2.10061e-23)
(3.75995 0.0082039 -5.88108e-23)
(2.86857 0.00623848 -6.35757e-18)
(0.532896 0.00115377 3.06957e-18)
(0.970977 0.0021031 -7.36646e-18)
(0.973071 0.00162722 -6.95522e-24)
(0.533908 0.000892662 2.89821e-24)
(1.49857 0.00250695 0)
(3.77432 0.00633856 0)
(3.77589 0.00403572 2.77865e-23)
(4.84693 0.00512697 -3.31828e-23)
(2.127 0.00356078 -9.82325e-24)
(2.87796 0.00482375 0)
(2.12586 0.00231687 -2.55223e-18)
(2.87767 0.00310688 0)
(1.49722 0.0016457 2.12751e-18)
(0.971898 0.00107643 -1.77318e-18)
(20.3851 0.0249754 4.47913e-18)
(19.1967 0.0216992 0)
(20.421 -0.00201113 0)
(16.4016 0.0171235 -1.47471e-21)
(16.3414 0.00110338 2.93972e-18)
(14.7729 0.0152241 -3.95475e-22)
(17.8736 0.0191954 -6.60432e-22)
(17.8394 6.71156e-05 3.27673e-21)
(19.1953 -0.00105741 4.76922e-21)
(21.4542 0.0294139 -4.05763e-18)
(21.5291 -0.0024519 7.9046e-21)
(14.694 0.00188794 1.9996e-21)
(12.9096 0.00235336 -3.40195e-18)
(7.36962 -0.0570892 4.7349e-17)
(7.90808 -0.274878 0)
(10.8705 -0.082853 -2.41308e-21)
(9.04758 -0.0695362 5.25614e-17)
(9.63023 -0.331927 -3.16596e-21)
(11.1413 0.0114435 -4.33558e-22)
(6.11788 0.00640692 -7.98218e-23)
(7.60749 0.00789748 9.40537e-23)
(9.30458 0.00959527 0)
(13.0004 0.0133425 0)
(0.533125 0.000594366 1.47775e-18)
(7.51281 0.00228458 -2.96591e-18)
(9.20642 0.00246567 0)
(11.0443 0.00251934 0)
(6.03075 0.00204089 2.5575e-18)
(4.77015 0.00176887 3.31804e-23)
(5.9048 -0.0460763 -4.08833e-17)
(3.71086 0.00148866 1.80893e-18)
(2.82475 0.00121171 -3.02033e-18)
(2.08468 0.000945795 1.25931e-18)
(0.521668 0.000266552 7.2915e-19)
(0.951592 0.000470604 -8.74925e-19)
(1.46698 0.000697476 0)
(3.62192 -0.0286301 0)
(4.66262 -0.0366291 1.05643e-21)
(3.95807 -0.140318 1.16127e-16)
(6.38094 -0.223436 -1.63607e-16)
(5.0691 -0.178665 -4.62531e-21)
(2.0301 -0.0162181 -4.02906e-17)
(2.75364 -0.0218889 2.41581e-17)
(1.42733 -0.0114529 -1.37679e-23)
(0.506884 -0.00409613 1.16634e-17)
(0.925202 -0.00745227 -8.87513e-24)
(20.2707 -0.149601 3.53594e-17)
(19.0155 -0.140856 -4.24671e-20)
(22.4624 -0.163263 -2.95282e-17)
(21.4168 -0.157175 -2.44276e-20)
(20.5771 -0.640552 1.32649e-16)
(20.7968 -1.007 6.22007e-21)
(16.1368 -0.120455 0)
(18.0432 -0.583147 -3.74416e-20)
(17.6413 -0.131125 -2.57573e-21)
(19.3626 -0.614767 -3.2977e-20)
(19.5471 -0.960921 3.68286e-20)
(16.6018 -0.545237 0)
(18.1553 -0.904301 0)
(14.4938 -0.108802 -1.5343e-21)
(22.7341 -0.674763 -1.11681e-16)
(21.6984 -0.660625 -1.87799e-20)
(11.467 -0.39139 -1.26392e-20)
(9.1423 -0.474507 0)
(12.9567 -0.664285 1.2572e-20)
(11.0107 -0.568317 0)
(12.7211 -0.0961743 -5.36593e-17)
(13.2965 -0.448738 -6.32211e-21)
(14.85 -0.755241 2.20558e-20)
(15.0207 -0.50047 2.2653e-20)
(16.5936 -0.835881 -2.25277e-20)
(21.9323 -1.04374 0)
(22.9745 -1.07192 -1.10601e-19)
(23.9374 -1.09176 -9.99571e-17)
(22.7838 -1.09405 0)
(23.8107 -1.11059 0)
(21.6576 -1.06714 4.33376e-21)
(19.0021 -0.977279 -2.38002e-20)
(20.4069 -1.0287 -1.18532e-16)
(24.8294 -1.10295 1.82531e-16)
(7.44835 -0.388368 1.51895e-16)
(11.6279 -0.63365 -9.84264e-21)
(15.628 -0.830588 -1.58342e-16)
(13.6687 -0.736214 1.65902e-16)
(9.64559 -0.531073 1.51184e-16)
(7.83934 -0.435609 -1.32601e-16)
(17.4141 -0.911462 1.45473e-16)
(3.02248 -0.1077 -3.69238e-22)
(2.23662 -0.0800529 2.9779e-22)
(0.562987 -0.0203548 -4.68392e-17)
(1.02526 -0.0369615 -5.62035e-17)
(1.5775 -0.0566799 6.74337e-17)
(1.23597 -0.0654484 5.22729e-17)
(0.68056 -0.0360853 7.81384e-23)
(5.96531 -0.312233 -1.28732e-16)
(4.68943 -0.246238 1.54919e-21)
(3.6011 -0.189599 0)
(4.90662 -0.27694 -1.54652e-21)
(6.25979 -0.35072 1.6973e-21)
(2.67722 -0.141274 -2.97761e-22)
(1.89557 -0.100217 -6.27157e-17)
(3.7581 -0.213504 5.96384e-22)
(2.78772 -0.15928 6.62329e-17)
(4.91869 0.263714 1.88562e-16)
(6.19326 0.279343 0)
(3.87953 0.208 -1.58725e-16)
(4.95497 0.223349 2.88049e-21)
(6.3234 0.216911 0)
(7.77642 0.267337 0)
(9.38113 0.323317 1.60911e-20)
(3.01163 0.161465 -1.01428e-21)
(2.28863 0.122699 -8.46359e-22)
(18.3625 0.0835675 -1.02395e-17)
(15.131 0.110963 0)
(16.4639 0.127675 0)
(22.5323 -0.00198487 1.80942e-21)
(23.4167 -0.167465 -1.31649e-20)
(23.6897 -0.682491 0)
(0.420857 0.0225606 0)
(0.768323 0.0411881 6.41606e-17)
(0.221165 -0.0128402 0)
(22.7155 -1.56791 0)
(23.8877 -1.60994 0)
(21.3382 -1.50291 -2.11467e-20)
(19.7076 -1.41111 -1.842e-20)
(5.76457 -0.431923 -5.95167e-22)
(4.33994 -0.325409 0)
(3.10464 -0.232757 -1.07024e-16)
(2.04152 -0.152935 1.78481e-16)
(1.1321 -0.084707 -7.43934e-17)
(9.22836 -0.688313 -1.68754e-21)
(7.39215 -0.552931 0)
(13.444 -0.992883 2.88433e-16)
(11.2614 -0.836466 0)
(15.6734 -1.14864 -3.10143e-16)
(17.8032 -1.29152 0)
(0.357979 -0.0267171 0)
(1.97008 -0.113122 -5.52274e-17)
(1.28252 -0.0739559 1.72955e-22)
(0.705232 -0.0408128 -7.81361e-23)
(14.7987 -1.56974 6.74101e-17)
(17.5169 -1.75653 3.95896e-16)
(14.0378 -1.38225 0)
(19.0164 -1.79583 -6.75285e-16)
(18.4822 -2.03361 -1.17551e-16)
(15.4405 0.105855 -6.00288e-16)
(15.0775 -1.24129 -4.89576e-16)
(18.091 -1.35713 2.30228e-16)
(21.7164 -1.93777 0)
(17.7597 -2.26274 1.42559e-16)
(19.7036 -1.96728 1.30309e-16)
(22.831 1.26037 2.30476e-16)
(15.847 -0.211611 1.21606e-15)
(20.1285 -1.46108 0)
(22.5409 -1.79635 0)
(22.4475 -2.03572 -1.40963e-16)
(19.1432 -2.24113 -2.53265e-16)
(21.0964 -2.13702 -8.90868e-17)
(18.7295 -2.29675 9.19951e-17)
(24.2208 1.29077 6.17591e-16)
(20.0306 0.984439 -1.5916e-16)
(15.9429 0.0621275 -1.86256e-17)
(20.2837 -1.36028 -3.20814e-16)
(24.9304 -1.83522 1.21124e-16)
(24.4647 -1.94071 0)
(19.553 -2.2368 1.22611e-16)
(22.4891 -2.30072 1.95044e-16)
(19.4809 -2.40268 -7.18928e-17)
(19.0815 -2.41439 3.74721e-17)
(24.5916 1.03974 -5.24969e-16)
(21.1769 1.00274 -3.9003e-16)
(18.2107 -0.759864 -3.53619e-16)
(23.2738 -1.49364 6.30821e-18)
(25.2054 -1.71557 6.38318e-16)
(26.5706 -1.73591 -3.66086e-16)
(24.8281 -2.37232 0)
(26.4895 -2.1375 0)
(20.6691 -2.26354 1.43148e-16)
(21.9324 -2.35771 -4.86448e-17)
(24.1651 -2.41198 0)
(20.5325 -2.45576 7.44346e-17)
(19.6833 -2.47675 -6.78283e-17)
(19.147 -2.4767 1.59788e-16)
(20.1321 0.147493 7.43955e-17)
(19.5921 -0.774546 3.78313e-16)
(22.8624 -1.23732 -1.60935e-17)
(27.6416 -1.71631 2.22944e-16)
(26.7502 -2.15468 0)
(28.5906 -1.98806 2.96946e-16)
(26.5687 -2.5081 0)
(27.5665 -2.47229 0)
(22.4623 -2.42549 5.57233e-17)
(25.1216 -2.5919 1.58475e-16)
(21.3195 -2.51129 -6.06695e-17)
(20.6325 -2.52776 0)
(19.744 -2.51984 -8.22998e-17)
(19.2639 -2.58859 8.49064e-17)
(28.9439 1.82718 0)
(18.8583 -1.02806 0)
(24.2413 -1.23119 1.25306e-16)
(27.0795 -1.60251 0)
(29.5746 -1.82249 -6.84854e-16)
(28.961 -2.34168 0)
(30.0542 -2.00859 -3.11984e-16)
(27.3608 -2.60554 0)
(28.9056 -2.49351 0)
(23.2817 -2.42283 1.35595e-17)
(24.5383 -2.63179 -1.65773e-16)
(26.637 -2.661 0)
(21.3998 -2.57066 -5.84354e-17)
(21.3005 -2.63533 -5.85694e-17)
(20.9167 -2.6076 2.93634e-17)
(19.9468 -2.67685 -3.86278e-17)
(19.6376 -2.67289 -3.65223e-17)
(27.4986 1.46346 4.11736e-16)
(19.9666 -1.28322 1.36464e-16)
(23.0354 -1.14933 -2.82876e-16)
(28.6342 -1.64613 0)
(31.9469 -1.74688 1.01057e-17)
(30.3468 -2.34597 -1.44154e-16)
(32.604 -2.18433 1.12307e-16)
(28.6731 -2.65725 1.48804e-16)
(30.3284 -2.52895 -4.75867e-17)
(29.432 -2.65407 -1.44103e-16)
(23.1656 -2.6123 -7.31196e-17)
(25.0979 -2.82179 0)
(27.1517 -2.70037 4.42543e-17)
(22.4285 -2.65422 1.30209e-16)
(22.3816 -2.76733 -1.60248e-18)
(21.0564 -2.72101 -1.46625e-16)
(20.2272 -2.73474 0)
(19.8282 -2.76328 0)
(22.607 0.508837 4.95419e-16)
(34.5895 1.88581 0)
(19.7508 -0.178247 5.21064e-16)
(26.029 -1.22696 -3.8395e-16)
(31.4938 -1.69077 0)
(28.2695 -1.05631 3.87542e-16)
(34.0751 -1.88504 3.08508e-16)
(32.5655 -2.2961 4.86785e-16)
(34.2697 -2.17866 -1.42605e-16)
(29.242 -2.7694 -1.39065e-16)
(31.5629 -2.552 3.18094e-17)
(30.7007 -2.72202 -6.70764e-17)
(23.9785 -2.72766 0)
(26.0802 -2.74753 0)
(28.4086 -2.81054 1.03665e-16)
(23.463 -2.74754 3.99383e-17)
(21.7067 -2.75379 1.09399e-16)
(21.2426 -2.78525 0)
(20.5661 -2.8038 0)
(20.1386 -2.85113 3.68665e-17)
(22.3743 0.206921 -1.49435e-15)
(34.4815 2.07378 -3.41767e-16)
(24.3537 -0.670963 2.64186e-16)
(33.2639 -1.66552 0)
(31.316 -1.2615 0)
(35.941 -1.85499 0)
(34.0057 -2.32438 -3.84849e-16)
(36.0197 -2.17618 1.67884e-16)
(30.3592 -2.89593 0)
(32.9429 -2.56174 -2.72658e-16)
(31.2107 -2.80829 6.50441e-17)
(26.4745 -2.87747 -1.74811e-17)
(28.6606 -2.92824 3.50098e-17)
(23.5592 -2.82152 0)
(22.6688 -2.84319 0)
(21.5997 -2.8117 0)
(20.6055 -2.89082 5.45937e-17)
(20.9613 -2.92355 1.18346e-17)
(20.7521 -3.01573 -1.3201e-16)
(23.1746 -0.445541 9.61023e-16)
(28.7678 1.40072 3.5962e-16)
(26.2465 -0.825445 -1.06474e-15)
(35.1821 -1.62321 3.09925e-16)
(32.3978 -1.07864 0)
(37.4985 -2.03093 -1.36954e-16)
(36.2776 -1.77268 -3.96525e-16)
(33.7713 -2.58484 1.77709e-16)
(35.7413 -2.36421 0)
(36.3842 -2.31935 0)
(37.3092 -2.16501 0)
(30.7746 -2.98477 9.87697e-19)
(33.4425 -2.77349 5.29748e-17)
(32.521 -2.80886 0)
(25.9499 -2.89182 7.84967e-17)
(27.8545 -2.93933 -2.0513e-17)
(29.8347 -2.95002 3.605e-17)
(24.7407 -2.77917 -9.21644e-17)
(23.5714 -2.94432 5.39453e-17)
(22.5584 -2.92035 0)
(21.4399 -2.93283 -6.35088e-17)
(21.3125 -2.99375 9.84138e-17)
(20.6651 -3.0262 0)
(23.6266 0.425465 -4.86255e-16)
(25.1563 -0.376563 5.63122e-16)
(29.4244 1.06922 0)
(30.7761 -0.975432 0)
(36.695 -1.3719 2.42586e-16)
(35.7059 -1.19377 -2.33282e-16)
(38.7799 -2.00767 1.42773e-16)
(38.1511 -1.75647 -1.34195e-16)
(35.2822 -2.7162 -2.37671e-17)
(36.3311 -2.64404 0)
(38.0177 -2.45344 1.46887e-16)
(38.5075 -2.31704 0)
(31.8862 -2.98903 -5.08179e-17)
(34.6549 -2.83338 0)
(32.8942 -2.90078 0)
(26.647 -2.9926 4.49888e-17)
(28.3515 -2.97502 -4.23353e-17)
(29.6306 -3.00458 0)
(24.6571 -2.94842 -4.98164e-17)
(23.5381 -3.02534 -5.26495e-18)
(22.4471 -3.01917 0)
(22.3706 -3.05355 -1.03597e-16)
(21.5243 -3.11159 0)
(21.2256 -3.11109 0)
(26.0576 0.902619 0)
(25.7668 -0.0120648 0)
(27.3437 -0.439065 0)
(32.5052 -0.754186 0)
(38.3611 -1.38909 0)
(36.919 -1.04941 4.42187e-16)
(39.1094 -1.8088 2.93219e-16)
(40.0045 -2.11763 0)
(35.4838 -2.7914 2.26683e-17)
(37.4729 -2.66125 1.51028e-16)
(38.5006 -2.53119 -2.72783e-16)
(39.8558 -2.24717 0)
(32.5023 -3.09018 -2.14653e-17)
(34.9103 -2.91343 0)
(34.0652 -2.95457 0)
(25.7109 -3.0145 0)
(27.663 -2.98978 3.40572e-17)
(30.1468 -3.06795 5.88812e-17)
(24.496 -3.05771 -4.90815e-17)
(23.275 -3.01332 0)
(23.107 -3.10643 1.46378e-16)
(22.4701 -3.16859 0)
(21.943 -3.16234 0)
(21.3969 -3.21802 -8.08468e-17)
(28.5001 1.18842 -8.10773e-16)
(25.585 0.256503 0)
(30.8452 -0.555734 2.64051e-16)
(35.4528 -0.792694 1.64918e-18)
(39.8807 -1.42421 -1.77402e-16)
(38.931 -1.1221 -4.65267e-16)
(40.5281 -1.81409 -1.19634e-16)
(41.0835 -2.00135 2.51286e-16)
(36.4639 -2.82436 1.20069e-16)
(37.5347 -2.77745 -7.5674e-17)
(39.5607 -2.52687 2.06144e-16)
(40.7425 -2.29889 -5.64005e-17)
(33.978 -3.06618 -1.1936e-16)
(32.2734 -3.1582 -2.22694e-17)
(35.8779 -2.98083 0)
(25.6444 -3.05499 -7.6504e-17)
(28.1815 -3.11084 0)
(29.4495 -3.17826 -1.09032e-16)
(31.2298 -3.03741 6.78828e-19)
(24.7567 -3.09209 -3.22792e-17)
(24.3909 -3.09524 9.00437e-17)
(24.2635 -3.18336 -4.02232e-17)
(23.334 -3.2242 1.74117e-18)
(23.3284 -3.312 -1.18548e-16)
(22.2902 -3.32853 8.22002e-17)
(21.9684 -3.32538 -1.18596e-16)
(27.0648 1.2665 5.29664e-16)
(28.3501 -0.230828 0)
(31.8736 -0.369323 -2.68205e-16)
(36.7964 -0.64961 -4.1446e-16)
(41.1157 -1.66283 0)
(40.1674 -1.30655 5.6058e-16)
(40.0129 -0.942994 0)
(42.2677 -1.95974 -8.59813e-17)
(36.5695 -2.894 -2.35108e-17)
(38.3555 -2.82471 0)
(39.8204 -2.76128 -1.85883e-16)
(40.455 -2.47906 -1.18206e-16)
(41.9592 -2.27608 5.33333e-17)
(34.8405 -3.13474 8.88547e-17)
(32.9207 -3.19491 0)
(35.9608 -3.09039 0)
(26.3129 -3.04777 1.04037e-16)
(27.6135 -3.14631 0)
(29.7083 -3.18058 1.01097e-16)
(31.7993 -3.21545 8.14903e-17)
(25.9258 -3.17374 -2.32528e-17)
(25.0165 -3.23142 0)
(24.3752 -3.22691 -4.01987e-17)
(23.8169 -3.33318 1.18989e-16)
(23.6292 -3.40533 -4.23078e-17)
(22.6525 -3.37652 8.32828e-17)
(21.9963 -3.39542 0)
(26.8556 1.14916 8.53125e-16)
(28.5758 -0.0813933 -8.92887e-16)
(34.7717 -0.484432 -3.62596e-16)
(39.0293 -0.74365 -4.73123e-17)
(42.3432 -1.62401 0)
(41.7633 -1.1848 -3.64714e-16)
(41.5834 -0.958127 -3.3593e-16)
(43.0018 -1.73143 -1.13764e-17)
(42.6678 -2.11042 0)
(37.4138 -2.95682 0)
(38.1733 -3.03675 -8.16669e-17)
(39.3869 -2.7576 1.44581e-16)
(40.8195 -2.76151 -1.64182e-17)
(41.279 -2.5917 0)
(42.4476 -2.40279 0)
(34.9181 -3.27795 7.93869e-17)
(33.9585 -3.23899 0)
(37.0101 -3.09223 0)
(27.9201 -3.27989 0)
(30.4192 -3.23707 -2.19067e-18)
(28.6362 -3.21397 0)
(31.6487 -3.28878 -8.01837e-17)
(26.6917 -3.24386 0)
(26.2987 -3.25494 0)
(25.401 -3.28874 -1.05178e-16)
(25.1628 -3.38688 1.0219e-16)
(24.6962 -3.41045 6.81152e-17)
(24.1295 -3.4453 0)
(22.7602 -3.46174 0)
(22.2803 -3.44663 4.58521e-17)
(27.2457 0.229195 7.10928e-16)
(34.3398 2.26568 1.01132e-16)
(33.1769 -0.208413 0)
(36.0222 -0.34954 1.86785e-16)
(40.3218 -0.553143 0)
(42.7271 -1.2896 3.83097e-16)
(43.0851 -0.870491 -2.14848e-16)
(44.1123 -1.74526 2.64832e-16)
(43.9357 -2.09002 2.82765e-16)
(39.0755 -3.08316 7.70166e-17)
(39.8306 -2.89993 0)
(41.1787 -2.81056 0)
(41.9443 -2.59741 0)
(43.2097 -2.34832 0)
(36.2121 -3.2327 5.17303e-19)
(33.9816 -3.39652 8.59162e-17)
(37.1293 -3.15746 -7.31969e-17)
(30.2612 -3.34629 0)
(28.9559 -3.32614 0)
(32.5797 -3.40025 2.30575e-17)
(26.8092 -3.25039 0)
(26.3039 -3.32978 7.65825e-17)
(26.0382 -3.40678 -4.87849e-17)
(24.9485 -3.50446 0)
(26.0017 -3.4745 -1.58561e-17)
(24.469 -3.52575 3.46754e-17)
(23.7435 -3.54036 -1.81526e-18)
(23.1475 -3.54683 -9.9128e-19)
(22.7682 -3.57244 0)
(27.1087 0.301257 1.95784e-15)
(34.4746 1.77514 0)
(34.6236 0.194421 -6.21813e-16)
(38.9257 -0.294668 1.51754e-16)
(42.5902 -0.643691 0)
(43.9896 -1.29731 -2.51472e-16)
(44.4096 -0.836882 4.49354e-16)
(44.593 -1.89961 -2.48578e-16)
(44.7354 -1.54076 -1.49878e-16)
(44.2447 -2.25598 0)
(39.2261 -3.15967 1.63744e-16)
(40.5168 -2.95476 0)
(40.9776 -2.96906 0)
(42.1036 -2.78206 1.52777e-17)
(42.5428 -2.66694 0)
(43.8399 -2.38161 8.87683e-17)
(43.1661 -2.60111 0)
(36.6352 -3.28017 0)
(34.6365 -3.32922 -4.79328e-17)
(38.4565 -3.15599 -1.13015e-16)
(31.0646 -3.34653 -9.67845e-17)
(28.4595 -3.32164 0)
(32.4374 -3.45943 2.41655e-17)
(27.3689 -3.43512 -5.01569e-17)
(27.3627 -3.44724 -7.91884e-17)
(26.3016 -3.61106 0)
(27.1577 -3.5606 0)
(25.445 -3.54327 0)
(24.3707 -3.61957 -4.54057e-17)
(24.1689 -3.66133 -4.03064e-17)
(23.5872 -3.69777 0)
(23.1133 -3.6875 1.80618e-17)
(29.4229 1.08647 -1.36853e-15)
(31.5701 0.0642258 2.98047e-16)
(37.8066 2.36899 3.35897e-16)
(38.6006 0.165378 8.51306e-16)
(40.3181 -0.224691 0)
(43.4939 -0.538853 0)
(44.5762 -1.14279 3.00279e-16)
(45.4203 -0.759992 0)
(45.4305 -1.89335 0)
(45.5311 -1.4818 -1.42532e-16)
(45.092 -2.21462 -1.79261e-16)
(40.2733 -3.18311 -1.58333e-17)
(41.7757 -3.01745 3.16702e-17)
(42.5566 -2.76084 0)
(42.3237 -2.99549 4.39932e-17)
(44.5803 -2.54987 -2.6234e-16)
(43.6424 -2.66417 0)
(38.0721 -3.36359 -1.43606e-16)
(36.2389 -3.38372 3.65918e-17)
(35.3903 -3.2538 -5.3202e-17)
(33.7993 -3.42662 9.6668e-17)
(38.7347 -3.29284 1.02671e-16)
(31.1286 -3.51169 4.84386e-17)
(28.6844 -3.44994 5.62156e-17)
(33.1351 -3.53123 -5.7169e-17)
(28.3834 -3.54197 6.11541e-17)
(26.8362 -3.69002 0)
(27.1993 -3.63883 0)
(28.2801 -3.59076 5.84652e-17)
(26.5321 -3.66794 0)
(25.2407 -3.61694 -4.01743e-17)
(25.1091 -3.69161 -3.23955e-17)
(24.6598 -3.73122 7.6407e-17)
(23.4099 -3.7086 2.60576e-19)
(29.5697 1.11486 0)
(31.5147 0.416329 0)
(40.5832 2.63796 -2.24247e-16)
(40.0343 0.0646864 -9.78672e-16)
(42.4362 -0.370229 0)
(45.042 -0.496296 0)
(45.7143 -1.10825 -4.06441e-16)
(46.2762 -0.88213 0)
(45.6745 -0.498696 0)
(45.7963 -1.71838 0)
(45.7635 -2.02667 0)
(45.9018 -1.3518 -1.24842e-16)
(45.59 -2.18869 1.48933e-16)
(45.151 -2.46362 0)
(40.6705 -3.20115 7.82664e-17)
(41.6845 -3.08376 -6.63509e-17)
(43.3178 -2.82352 5.30395e-17)
(42.99 -2.99956 -6.97857e-17)
(44.379 -2.66597 2.54642e-16)
(38.4784 -3.48486 -9.02024e-18)
(36.7333 -3.516 -1.4498e-16)
(35.7421 -3.51179 -3.86248e-17)
(34.2938 -3.52595 -5.03423e-17)
(39.881 -3.28741 0)
(32.2648 -3.53106 1.08129e-16)
(29.9891 -3.50902 -1.402e-18)
(29.8684 -3.63546 1.41015e-18)
(28.2283 -3.75996 -6.24914e-17)
(28.2818 -3.71465 0)
(29.0004 -3.66326 -7.27043e-17)
(27.3238 -3.74818 0)
(25.7784 -3.66502 8.10382e-17)
(25.28 -3.75005 -6.1842e-17)
(25.5365 -3.76482 -3.41489e-17)
(24.0446 -3.65867 0)
(23.623 -3.79786 3.20238e-17)
(30.4095 1.35278 3.2378e-16)
(32.8357 0.400298 -2.54381e-16)
(38.2181 2.42818 6.59799e-16)
(40.0722 0.339445 -8.84651e-17)
(43.199 -0.0604895 5.00909e-16)
(43.727 -0.132214 0)
(45.315 -0.141136 0)
(46.2194 -1.01913 3.22128e-16)
(46.6458 -0.706849 0)
(46.515 -0.45668 0)
(46.3476 -1.6973 0)
(46.3905 -1.97152 0)
(46.4192 -1.34928 1.00407e-16)
(46.1245 -2.30796 1.25422e-16)
(45.7468 -2.52196 0)
(40.5794 -3.34302 -5.1845e-17)
(42.1502 -3.16728 -3.10042e-17)
(43.505 -2.9021 -5.09075e-17)
(42.9577 -3.08779 4.2153e-17)
(44.7553 -2.76184 -8.65766e-17)
(39.6484 -3.43164 7.68179e-18)
(37.7048 -3.46156 6.07542e-17)
(35.5656 -3.56075 3.80059e-17)
(34.0829 -3.62261 -4.54956e-17)
(32.4985 -3.51448 -1.01858e-16)
(30.7763 -3.66884 0)
(29.1422 -3.77588 1.02252e-16)
(29.9823 -3.71533 0)
(28.2383 -3.78537 3.27862e-17)
(26.7046 -3.74285 0)
(26.6277 -3.78359 0)
(25.4276 -3.77975 -4.58782e-17)
(26.7118 -3.86332 5.05507e-17)
(24.1664 -3.83481 0)
(24.2186 -3.85577 -3.40875e-17)
(23.7152 -3.83563 0)
(29.4191 1.06743 -1.12845e-15)
(31.3318 0.835504 0)
(37.3693 0.270336 2.21402e-16)
(39.9578 2.54768 -6.64161e-16)
(43.2588 0.400616 3.90243e-16)
(44.7037 0.124673 -3.59835e-16)
(46.0755 -0.0880813 0)
(46.6459 -1.10459 -2.46452e-16)
(46.7949 -0.744046 0)
(46.6417 -0.328942 0)
(46.5702 -1.46387 -1.69351e-16)
(46.5618 -1.84028 1.502e-17)
(46.5351 -2.12892 -2.3753e-16)
(46.1712 -2.41951 0)
(45.7409 -2.67751 6.49844e-17)
(41.4247 -3.37709 0)
(42.0265 -3.27214 0)
(44.1944 -2.92143 0)
(43.5315 -3.17676 0)
(45.3227 -2.70135 -9.11957e-17)
(40 -3.47354 0)
(38.004 -3.58291 -1.65994e-16)
(36.0856 -3.6167 7.92227e-17)
(34.7302 -3.66227 6.36232e-17)
(33.1801 -3.56195 0)
(31.8439 -3.59755 2.56804e-18)
(30.3744 -3.75096 -5.13635e-17)
(29.0913 -3.87613 -6.02382e-18)
(28.7637 -3.82878 -4.02052e-17)
(27.3356 -3.82724 0)
(26.1067 -3.91233 5.95874e-17)
(27.5508 -3.87028 -1.20874e-18)
(25.4514 -3.89731 0)
(25.2159 -3.9297 2.88058e-17)
(24.5217 -3.91281 0)
(24.3011 -3.91962 -1.32863e-17)
(30.95 1.70315 7.56737e-17)
(32.2755 0.768762 0)
(39.0059 0.521757 -9.93187e-17)
(37.2407 2.23554 -1.2279e-15)
(43.8802 0.525915 -7.31968e-16)
(45.8053 0.262514 3.6198e-16)
(46.6132 -0.23724 0)
(46.1404 0.0251211 0)
(46.8394 -1.07585 -8.24004e-17)
(46.8223 -0.597523 -1.18036e-16)
(46.8642 -0.940752 9.29936e-18)
(46.7848 -0.440448 0)
(46.8896 -1.4545 2.74641e-17)
(46.8487 -1.75545 -1.22177e-17)
(46.9057 -2.15944 1.13838e-16)
(46.6512 -2.44199 0)
(46.0017 -2.72329 0)
(41.5571 -3.44352 -1.25099e-17)
(42.6133 -3.31423 -2.68493e-17)
(44.304 -3.03863 0)
(43.4438 -3.29025 3.82607e-17)
(45.5557 -2.86784 0)
(39.8646 -3.76823 -2.83873e-17)
(41.179 -3.37718 2.63835e-17)
(37.181 -3.65122 1.26777e-16)
(39.2663 -3.62195 5.06519e-17)
(35.416 -3.69104 -9.7448e-17)
(34.1571 -3.71024 -2.59365e-17)
(33.3099 -3.68663 -7.67883e-17)
(32.4836 -3.69691 8.48595e-17)
(31.3676 -3.76756 9.62155e-17)
(29.9318 -3.85298 0)
(28.3721 -3.88259 0)
(29.3785 -3.84234 -2.14039e-17)
(26.9391 -3.92573 -3.22178e-17)
(28.5808 -3.95782 0)
(25.86 -3.92949 6.92177e-18)
(25.4932 -3.98463 -5.50945e-17)
(24.9443 -3.96472 1.24257e-17)
(24.4783 -3.96117 -1.35943e-17)
(31.727 1.39386 3.9577e-16)
(36.3404 0.522796 -3.88772e-16)
(42.0079 0.682264 7.62068e-17)
(40.3706 2.5733 9.87386e-16)
(45.5793 0.590118 2.63547e-16)
(46.2277 0.3608 -2.29281e-16)
(46.7644 -0.00749656 -1.5895e-16)
(46.584 0.0743407 0)
(46.9503 -1.2329 8.72149e-17)
(46.9101 -0.673513 3.49285e-16)
(46.9312 -0.932354 -1.7155e-16)
(46.8427 -0.289332 0)
(46.992 -1.37231 1.9152e-16)
(47.0252 -1.81157 1.94256e-17)
(47.0717 -2.07077 -8.06431e-17)
(46.9281 -2.37166 0)
(46.6899 -2.57738 1.64354e-16)
(46.4636 -2.70329 -1.30907e-16)
(42.3868 -3.42518 -1.20352e-17)
(44.9477 -3.02892 3.67711e-17)
(44.0592 -3.32945 -7.23674e-17)
(45.555 -2.93652 -1.17685e-16)
(41.0971 -3.67291 9.22139e-19)
(37.4527 -3.76225 1.62062e-16)
(39.2812 -3.76594 0)
(35.669 -3.7913 4.33843e-17)
(34.7277 -3.77272 -3.56653e-17)
(32.462 -3.81023 -8.13973e-17)
(31.6929 -3.8793 5.51699e-18)
(31.109 -3.89141 0)
(29.1342 -3.9263 0)
(29.9004 -3.87094 3.40717e-17)
(27.5892 -4.01308 2.60493e-17)
(28.7569 -4.0989 -2.38947e-17)
(29.3088 -4.02865 0)
(27.1279 -3.98021 -5.67273e-18)
(26.4265 -3.99986 2.20732e-17)
(25.9229 -4.03357 -4.10836e-17)
(25.2728 -4.02475 -3.37328e-19)
(24.9086 -4.02763 2.03336e-17)
(31.1358 1.35545 6.09894e-16)
(37.5648 0.709277 7.86333e-16)
(43.4116 0.869833 9.39622e-16)
(40.4792 2.47102 -3.28998e-16)
(45.3264 0.827179 -5.02739e-17)
(46.3585 0.639742 1.99603e-16)
(46.6967 0.29186 0)
(46.7849 -0.0470621 3.51656e-16)
(47.0189 -1.19696 1.44783e-16)
(47.0415 -0.654041 -1.0367e-16)
(47.0195 -1.04965 -1.2996e-16)
(46.9623 -0.302616 0)
(47.0712 -1.48712 5.5032e-17)
(47.1779 -1.72917 -2.05332e-17)
(47.2531 -2.12403 9.2277e-17)
(47.1926 -2.4397 -1.01896e-16)
(46.9568 -2.64081 -7.66616e-17)
(46.608 -2.86758 0)
(42.6695 -3.41911 0)
(45.0541 -3.20527 6.87656e-17)
(44.7629 -3.29966 -2.51332e-18)
(43.6201 -3.44711 7.605e-17)
(45.9822 -3.01944 5.11859e-18)
(41.412 -3.63623 -9.97925e-18)
(38.4138 -3.81231 -3.5913e-17)
(36.6178 -3.81258 -1.61943e-16)
(40.0378 -3.80604 -7.31032e-18)
(34.5429 -3.84711 1.01807e-16)
(33.3876 -3.86661 -2.43879e-17)
(32.9723 -3.94541 1.05794e-16)
(31.7296 -4.04843 0)
(31.1549 -4.01496 -2.01189e-17)
(29.622 -4.12073 -3.9834e-17)
(30.8021 -4.06473 0)
(27.4559 -4.01393 -2.14179e-17)
(26.6002 -4.04595 2.14299e-17)
(26.5081 -4.09239 1.30841e-17)
(26.2656 -4.11181 4.66713e-17)
(25.7868 -4.11138 -3.49973e-17)
(25.4035 -4.0864 8.02076e-18)
(35.0583 2.48777 -7.33871e-16)
(34.3602 0.605695 -3.41679e-16)
(41.5753 0.903207 -5.0029e-16)
(46.3775 1.11047 -8.49515e-17)
(46.7329 0.733354 -6.39199e-16)
(46.7682 0.3777 -1.13541e-16)
(46.8922 0.0879826 -1.67078e-16)
(47.081 -1.31568 -7.28377e-17)
(47.0754 -0.524159 0)
(47.1977 -0.83483 8.88372e-17)
(47.1504 -1.02632 -1.06324e-16)
(47.1413 -0.171184 0)
(47.1606 -1.60393 1.8294e-17)
(47.2611 -1.92415 0)
(47.296 -2.29629 4.23776e-17)
(47.222 -2.59032 -3.70621e-17)
(46.8962 -2.81821 0)
(46.4889 -2.96828 0)
(42.3534 -3.55903 4.84938e-17)
(45.6681 -3.18015 2.90697e-17)
(45.1794 -3.40202 5.53917e-17)
(43.8268 -3.56933 3.79826e-17)
(41.4791 -3.81397 1.00654e-17)
(38.6274 -3.91379 0)
(36.9387 -3.89642 0)
(41.0163 -3.81953 2.69568e-17)
(39.5492 -3.93836 0)
(35.1633 -3.86737 -1.11631e-16)
(33.5131 -3.99137 -8.70116e-17)
(33.0336 -4.05308 0)
(31.7315 -4.08737 6.58946e-19)
(30.9322 -4.0619 7.10542e-17)
(29.7183 -4.19002 1.05577e-16)
(28.666 -4.10698 -5.53026e-17)
(27.6808 -4.09029 0)
(27.5227 -4.11305 -1.02172e-17)
(27.0944 -4.20183 -2.8318e-17)
(27.0748 -4.23363 4.34088e-17)
(26.0688 -4.11867 0)
(25.3875 -4.15718 0)
(34.34 2.23915 7.46282e-16)
(34.4411 0.715083 0)
(42.5512 1.12457 4.62018e-16)
(44.9553 1.22919 2.87643e-16)
(46.783 1.13042 8.70579e-17)
(46.8764 0.882264 1.50612e-16)
(46.805 0.528006 3.95525e-16)
(46.833 0.213876 2.13204e-17)
(47.1119 0.0112719 2.23279e-16)
(47.1874 -1.34628 0)
(47.2679 -0.502649 0)
(47.3953 -0.742299 2.14096e-17)
(47.2872 -1.13244 1.68397e-16)
(47.3218 -0.227509 0)
(47.2111 -1.57516 0)
(47.3662 -1.96327 0)
(47.4218 -2.33058 -1.368e-17)
(47.4652 -2.65438 6.92727e-17)
(47.0253 -2.90706 -2.99943e-18)
(46.7968 -3.05654 -8.96724e-19)
(42.9984 -3.69296 -1.62196e-16)
(45.7644 -3.25998 -1.67553e-16)
(45.0974 -3.46968 0)
(44.3323 -3.53539 2.94319e-17)
(42.6282 -3.77431 6.40494e-17)
(38.053 -3.93423 0)
(36.2277 -3.93164 8.83163e-18)
(41.3753 -3.91053 -4.52038e-17)
(39.8631 -3.98501 0)
(34.5296 -3.96615 3.87927e-17)
(33.7946 -4.06135 1.79927e-17)
(32.9418 -4.1041 8.92428e-17)
(31.8604 -4.0598 -4.21772e-17)
(30.8629 -4.20092 -8.22902e-17)
(28.7732 -4.16447 0)