# p  FACE_DATA 621
# x  y  z  p
0.000132962 -0.000335773 0.0005 -2976.48
0.000296505 0.00162071 0.0005 -3197.19
0.000951846 0.0034949 0.0005 -3201.79
0.00190406 0.00524657 0.0005 -3102.56
0.0030612 0.00687211 0.0005 -3152.02
0.00435087 0.00839846 0.0005 -2834.89
0.0057357 0.0098381 0.0005 -2984.05
0.00721607 0.01118 0.0005 -2832.67
0.00876368 0.0124451 0.0005 -2671.13
0.0103472 0.0136655 0.0005 -2531.84
0.0119602 0.0148464 0.0005 -2558.44
0.0136078 0.0159785 0.0005 -2488.21
0.0152857 0.0170654 0.0005 -2435.23
0.0169891 0.018112 0.0005 -2378.4
0.0187125 0.0191255 0.0005 -2320.53
0.0204523 0.0201105 0.0005 -2285.74
0.0222083 0.0210663 0.0005 -2256.61
0.0239799 0.0219929 0.0005 -2219.17
0.0257655 0.0228922 0.0005 -2184.52
0.0275634 0.0237669 0.0005 -2148.9
0.0293721 0.0246194 0.0005 -2117.35
0.0311901 0.025452 0.0005 -2086.22
0.0330163 0.0262658 0.0005 -2064.23
0.0348507 0.027061 0.0005 -2040
0.036693 0.0278379 0.0005 -2020.26
0.0385425 0.0285972 0.0005 -1995.28
0.0403988 0.0293399 0.0005 -1978.42
0.0422616 0.0300662 0.0005 -1956.36
0.0441303 0.0307771 0.0005 -1937.6
0.0460045 0.0314734 0.0005 -1918.25
0.0478835 0.0321566 0.0005 -1899.92
0.0497679 0.0328272 0.0005 -1886.14
0.051657 0.0334844 0.0005 -1871.23
0.0535496 0.034129 0.0005 -1854.07
0.0554463 0.0347616 0.0005 -1843.17
0.057347 0.0353818 0.0005 -1828.72
0.0592516 0.0359901 0.0005 -1814.5
0.0611598 0.0365871 0.0005 -1802.16
0.0630714 0.037173 0.0005 -1787.67
0.064986 0.0377489 0.0005 -1774.82
0.0669035 0.0383152 0.0005 -1763.91
0.0688238 0.0388721 0.0005 -1752.33
0.0707467 0.0394196 0.0005 -1743.63
0.0726723 0.0399577 0.0005 -1732.65
0.0746005 0.0404864 0.0005 -1724.71
0.0765314 0.0410054 0.0005 -1715.29
0.0784648 0.0415149 0.0005 -1704.41
0.0804005 0.0420154 0.0005 -1695.41
0.0823386 0.0425066 0.0005 -1686.29
0.0842788 0.0429896 0.0005 -1672.88
0.0862207 0.0434655 0.0005 -1666.23
0.0881644 0.0439341 0.0005 -1656.9
0.0901098 0.0443954 0.0005 -1651.31
0.0920571 0.0448489 0.0005 -1643.86
0.0940063 0.0452942 0.0005 -1637.92
0.0959572 0.0457316 0.0005 -1628.48
0.0979098 0.0461617 0.0005 -1622.79
0.0998642 0.0465835 0.0005 -1616.84
0.10182 0.0469971 0.0005 -1606.78
0.103778 0.0474037 0.0005 -1598.26
0.105737 0.0478039 0.0005 -1591.09
0.107697 0.0481983 0.0005 -1583.64
0.109658 0.0485856 0.0005 -1580.92
0.111621 0.0489669 0.0005 -1568.52
0.113585 0.0493429 0.0005 -1568.29
0.11555 0.049712 0.0005 -1562.33
0.117516 0.0500745 0.0005 -1557.36
0.119484 0.0504292 0.0005 -1554.64
0.121453 0.0507767 0.0005 -1544.42
0.123423 0.0511176 0.0005 -1541.22
0.125394 0.0514513 0.0005 -1533.56
0.127367 0.0517787 0.0005 -1525.97
0.12934 0.0520999 0.0005 -1520.55
0.131314 0.0524165 0.0005 -1510.38
0.133289 0.0527291 0.0005 -1509.11
0.135265 0.0530362 0.0005 -1505.87
0.137241 0.0533374 0.0005 -1501.21
0.139219 0.0536323 0.0005 -1497.97
0.141197 0.0539212 0.0005 -1492.7
0.143176 0.0542039 0.0005 -1489.73
0.145157 0.0544801 0.0005 -1485.27
0.147138 0.0547495 0.0005 -1480.51
0.14912 0.0550113 0.0005 -1476.12
0.151103 0.055266 0.0005 -1466.2
0.153087 0.0555167 0.0005 -1457.44
0.155071 0.0557643 0.0005 -1454.07
0.157055 0.0560077 0.0005 -1452.23
0.15904 0.0562463 0.0005 -1447.72
0.161026 0.0564794 0.0005 -1446.49
0.163012 0.0567074 0.0005 -1440.87
0.164999 0.0569302 0.0005 -1440.31
0.166987 0.0571472 0.0005 -1437.46
0.168975 0.0573575 0.0005 -1435.74
0.170964 0.0575602 0.0005 -1431.45
0.172954 0.0577557 0.0005 -1425.69
0.174945 0.0579438 0.0005 -1420.35
0.176936 0.0581259 0.0005 -1409.93
0.178927 0.0583048 0.0005 -1402.81
0.180919 0.0584806 0.0005 -1400.67
0.182911 0.0586532 0.0005 -1395.35
0.184903 0.0588224 0.0005 -1395.01
0.186895 0.0589871 0.0005 -1393.47
0.188888 0.0591471 0.0005 -1392.2
0.190882 0.0593009 0.0005 -1393.04
0.192876 0.0594478 0.0005 -1389.15
0.19487 0.0595881 0.0005 -1387.52
0.196865 0.059721 0.0005 -1384.62
0.198861 0.0598454 0.0005 -1380.94
0.200857 0.0599603 0.0005 -1373.42
0.202853 0.0600679 0.0005 -1360.38
0.20485 0.0601737 0.0005 -1347.48
0.206846 0.0602811 0.0005 -1344.49
0.208843 0.0603886 0.0005 -1346.04
0.21084 0.0604944 0.0005 -1347.65
0.212836 0.0605971 0.0005 -1350.75
0.214833 0.0606952 0.0005 -1354.84
0.216831 0.0607867 0.0005 -1359.95
0.218828 0.0608697 0.0005 -1363.11
0.220826 0.0609423 0.0005 -1365.96
0.222825 0.0610035 0.0005 -1364.46
0.224824 0.0610515 0.0005 -1364.23
0.226823 0.0610843 0.0005 -1356.73
0.228822 0.0611003 0.0005 -1345.23
0.230821 0.061104 0.0005 -1319.7
0.232821 0.0611034 0.0005 -1300.16
0.23482 0.0611021 0.0005 -1288.34
0.236819 0.0611005 0.0005 -1277.12
0.238819 0.0610984 0.0005 -1270.22
0.240818 0.0610955 0.0005 -1262.2
0.242818 0.0610922 0.0005 -1257.27
0.244817 0.0610889 0.0005 -1252.54
0.246816 0.0610847 0.0005 -1252.58
0.248816 0.0610799 0.0005 -1248.93
0.250815 0.0610748 0.0005 -1252.49
0.252815 0.0610693 0.0005 -1253.56
0.254814 0.0610633 0.0005 -1262.21
0.256813 0.0610559 0.0005 -1271.1
0.258813 0.0610394 0.0005 -1293.84
0.260812 0.0610053 0.0005 -1298.85
0.26281 0.0609528 0.0005 -1297.88
0.264809 0.0608831 0.0005 -1292.78
0.266806 0.0607982 0.0005 -1283.73
0.268803 0.0606999 0.0005 -1274.67
0.270799 0.0605897 0.0005 -1262.86
0.272795 0.0604694 0.0005 -1251.85
0.27479 0.0603402 0.0005 -1239.62
0.276785 0.0602039 0.0005 -1228.84
0.278779 0.0600618 0.0005 -1218.6
0.280774 0.0599162 0.0005 -1210.71
0.282767 0.0597683 0.0005 -1207.78
0.284761 0.0596168 0.0005 -1210.93
0.286753 0.0594504 0.0005 -1224.76
0.288744 0.0592598 0.0005 -1214.96
0.290732 0.0590469 0.0005 -1199.31
0.292717 0.0588146 0.0005 -1181.44
0.294701 0.0585638 0.0005 -1162.6
0.296683 0.0582967 0.0005 -1137.52
0.298662 0.0580163 0.0005 -1113.77
0.30064 0.0577245 0.0005 -1089.59
0.302617 0.0574248 0.0005 -1063.26
0.304593 0.0571184 0.0005 -1043.79
0.306568 0.0568068 0.0005 -1019.17
0.308542 0.0564931 0.0005 -1000.17
0.310517 0.056179 0.0005 -982.851
0.312491 0.0558648 0.0005 -969.95
0.314464 0.0555414 0.0005 -965.511
0.316435 0.0552028 0.0005 -944.548
0.318403 0.0548518 0.0005 -925.004
0.320369 0.0544893 0.0005 -904.765
0.322334 0.0541181 0.0005 -881.21
0.324297 0.0537387 0.0005 -862.118
0.326259 0.0533519 0.0005 -838.173
0.328219 0.0529605 0.0005 -816.334
0.33018 0.0525658 0.0005 -795.505
0.332139 0.0521702 0.0005 -773.964
0.334099 0.0517742 0.0005 -756.83
0.336059 0.0513785 0.0005 -736.841
0.338019 0.0509859 0.0005 -720.111
0.339981 0.0505979 0.0005 -705.077
0.341943 0.0502132 0.0005 -692.943
0.343905 0.049828 0.0005 -681.394
0.345866 0.0494403 0.0005 -668.06
0.347827 0.0490506 0.0005 -654.579
0.349788 0.0486599 0.0005 -641.435
0.351749 0.0482681 0.0005 -629.029
0.353709 0.0478758 0.0005 -615.763
0.35567 0.0474824 0.0005 -604.655
0.35763 0.0470879 0.0005 -591.404
0.35959 0.0466935 0.0005 -579.482
0.36155 0.0462993 0.0005 -568.257
0.36351 0.045906 0.0005 -556.074
0.365471 0.0455134 0.0005 -546.423
0.367431 0.0451208 0.0005 -535.027
0.369392 0.044729 0.0005 -524.771
0.371353 0.044338 0.0005 -514.955
0.373314 0.0439483 0.0005 -504.59
0.375275 0.0435585 0.0005 -496.661
0.377235 0.0431676 0.0005 -486.129
0.379196 0.0427769 0.0005 -476.776
0.381157 0.0423863 0.0005 -467.81
0.383118 0.0419968 0.0005 -457.942
0.385079 0.0416077 0.0005 -450.534
0.38704 0.0412177 0.0005 -440.894
0.389002 0.0408283 0.0005 -432.235
0.390963 0.0404394 0.0005 -423.781
0.392924 0.040052 0.0005 -415.021
0.394886 0.0396653 0.0005 -407.858
0.396847 0.0392785 0.0005 -399.226
0.398809 0.0388923 0.0005 -391.462
0.400771 0.0385068 0.0005 -383.71
0.402733 0.0381229 0.0005 -375.618
0.404696 0.0377396 0.0005 -369.443
0.406658 0.0373559 0.0005 -361.286
0.40862 0.0369729 0.0005 -354.115
0.410583 0.0365901 0.0005 -347.179
0.412545 0.0362085 0.0005 -339.468
0.414508 0.035828 0.0005 -333.32
0.416471 0.035447 0.0005 -326.459
0.418434 0.0350667 0.0005 -318.988
0.420397 0.034687 0.0005 -313.037
0.42236 0.0343079 0.0005 -305.711
0.424323 0.0339305 0.0005 -299.454
0.426287 0.0335535 0.0005 -293.555
0.42825 0.0331766 0.0005 -286.741
0.430214 0.0328002 0.0005 -280.744
0.432178 0.0324244 0.0005 -274.348
0.434142 0.0320504 0.0005 -267.967
0.436106 0.0316772 0.0005 -262.821
0.43807 0.0313037 0.0005 -256.365
0.440035 0.0309308 0.0005 -250.379
0.441999 0.0305584 0.0005 -244.821
0.443964 0.0301874 0.0005 -238.411
0.445928 0.0298173 0.0005 -233.615
0.447893 0.029447 0.0005 -227.605
0.449858 0.0290772 0.0005 -221.969
0.451823 0.0287078 0.0005 -216.663
0.453788 0.0283397 0.0005 -210.555
0.455754 0.0279722 0.0005 -206.127
0.457719 0.0276043 0.0005 -200.034
0.459684 0.0272373 0.0005 -194.71
0.46165 0.0268712 0.0005 -189.507
0.463616 0.0265065 0.0005 -184.062
0.465582 0.0261424 0.0005 -179.531
0.467548 0.0257781 0.0005 -174.139
0.469514 0.0254142 0.0005 -169.013
0.47148 0.025051 0.0005 -164.063
0.473446 0.0246887 0.0005 -158.93
0.475412 0.0243271 0.0005 -154.292
0.477379 0.0239652 0.0005 -149.364
0.479345 0.0236035 0.0005 -144.387
0.481312 0.0232419 0.0005 -139.482
0.483278 0.0228802 0.0005 -134.752
0.485245 0.0225196 0.0005 -129.323
0.487211 0.0221597 0.0005 -125.328
0.489178 0.0217997 0.0005 -120.061
0.491145 0.0214403 0.0005 -115.481
0.493112 0.0210814 0.0005 -110.801
0.495079 0.0207238 0.0005 -105.988
0.497046 0.0203661 0.0005 -102.013
0.499013 0.0200076 0.0005 -97.0645
0.50098 0.0196487 0.0005 -92.57
0.502947 0.0192894 0.0005 -87.997
0.504914 0.0189306 0.0005 -83.0512
0.506881 0.0185709 0.0005 -79.2881
0.508847 0.0182095 0.0005 -74.0445
0.510814 0.0178484 0.0005 -69.2989
0.51278 0.0174878 0.0005 -64.9368
0.514747 0.0171286 0.0005 -60.0523
0.516714 0.0167699 0.0005 -56.346
0.518681 0.0164096 0.0005 -51.8727
0.520647 0.016048 0.0005 -47.2575
0.522613 0.0156849 0.0005 -43.0638
0.524579 0.0153206 0.0005 -38.2712
0.526545 0.014954 0.0005 -34.3665
0.528509 0.0145833 0.0005 -29.534
0.530473 0.014209 0.0005 -24.7417
0.532437 0.0138311 0.0005 -19.8062
0.5344 0.0134514 0.0005 -14.4432
0.536362 0.0130693 0.0005 -10.0358
0.538324 0.0126839 0.0005 -4.65217
0.540285 0.0122957 0.0005 0.382777
0.542246 0.0119043 0.0005 5.50698
0.544206 0.0115097 0.0005 10.8071
0.546166 0.0111114 0.0005 15.9198
0.548125 0.0107094 0.0005 21.432
0.550082 0.0103047 0.0005 26.8561
0.552039 0.00989481 0.0005 31.8168
0.553995 0.00947812 0.0005 37.7288
0.555949 0.00905618 0.0005 43.4851
0.557903 0.0086301 0.0005 49.3866
0.559855 0.00820096 0.0005 55.1641
0.561808 0.00777089 0.0005 61.1784
0.56376 0.00734 0.0005 66.5202
0.565713 0.00690827 0.0005 72.3194
0.567665 0.00647641 0.0005 77.754
0.569616 0.0060417 0.0005 82.928
0.571567 0.00560447 0.0005 88.7403
0.573518 0.00516598 0.0005 93.9675
0.575469 0.00472765 0.0005 99.5942
0.57742 0.00429299 0.0005 104.835
0.579373 0.0038644 0.0005 109.961
0.581328 0.00344198 0.0005 114.698
0.583283 0.00302322 0.0005 119.33
0.585238 0.00260716 0.0005 123.949
0.587195 0.00219803 0.0005 128.708
0.589155 0.00180238 0.0005 132.99
0.591118 0.0014244 0.0005 137.254
0.593085 0.00106174 0.0005 140.387
0.595054 0.000716675 0.0005 144.644
0.597028 0.000400485 0.0005 146.445
0.599008 0.000125466 0.0005 150.573
0.599004 7.73e-05 0.0005 247.722
0.597012 0.000212531 0.0005 255.466
0.595017 0.000323414 0.0005 290.056
0.593022 0.000412549 0.0005 311.863
0.591026 0.00045683 0.0005 310.621
0.589028 0.000464401 0.0005 310.703
0.587031 0.000462751 0.0005 314.849
0.585034 0.00045996 0.0005 320.486
0.583036 0.000456128 0.0005 327.003
0.581039 0.000451341 0.0005 334.93
0.579042 0.000443464 0.0005 348.732
0.577045 0.00041838 0.0005 354.42
0.575048 0.000364689 0.0005 356.641
0.573052 0.000286007 0.0005 357.026
0.571058 0.000187726 0.0005 356.006
0.569063 7.51649e-05 0.0005 354.658
0.56707 -4.5919e-05 0.0005 353.34
0.565076 -0.000169977 0.0005 353.102
0.563083 -0.000293017 0.0005 357.966
0.56109 -0.000420623 0.0005 360.465
0.559097 -0.000560961 0.0005 361.359
0.557106 -0.000714345 0.0005 361.538
0.555115 -0.000878999 0.0005 361.217
0.553126 -0.00105346 0.0005 360.615
0.551137 -0.00123628 0.0005 359.574
0.549148 -0.00142553 0.0005 359.403
0.547161 -0.00162026 0.0005 358.542
0.545173 -0.00181953 0.0005 358.349
0.543186 -0.00202205 0.0005 359.821
0.5412 -0.0022306 0.0005 359.995
0.539214 -0.00244808 0.0005 359.876
0.53723 -0.00267451 0.0005 358.804
0.535246 -0.00290878 0.0005 358.457
0.533264 -0.00315064 0.0005 357.077
0.531282 -0.00340003 0.0005 355.764
0.529301 -0.00365566 0.0005 354.433
0.527321 -0.00391686 0.0005 352.696
0.525341 -0.00418234 0.0005 352.093
0.523362 -0.00445211 0.0005 350.556
0.521384 -0.00472613 0.0005 349.87
0.519406 -0.00500394 0.0005 349.698
0.517429 -0.00528753 0.0005 348.374
0.515453 -0.00557759 0.0005 347.765
0.513478 -0.00587436 0.0005 346.098
0.511504 -0.00617818 0.0005 344.462
0.50953 -0.00648807 0.0005 342.671
0.507558 -0.00680356 0.0005 340.513
0.505587 -0.00712373 0.0005 338.93
0.503616 -0.00744841 0.0005 337.046
0.501646 -0.00777798 0.0005 334.992
0.499677 -0.0081119 0.0005 333.013
0.497708 -0.00844944 0.0005 330.99
0.49574 -0.00878999 0.0005 329.17
0.493772 -0.00913312 0.0005 328.622
0.491806 -0.00948096 0.0005 326.61
0.48984 -0.00983494 0.0005 324.879
0.487875 -0.0101945 0.0005 322.621
0.485912 -0.0105592 0.0005 319.996
0.483949 -0.010928 0.0005 318.457
0.481986 -0.0113013 0.0005 315.788
0.480025 -0.01168 0.0005 313.142
0.478065 -0.0120629 0.0005 310.61
0.476106 -0.0124495 0.0005 307.319
0.474146 -0.0128388 0.0005 305.902
0.472188 -0.0132315 0.0005 302.617
0.470231 -0.0136282 0.0005 300.187
0.468274 -0.0140273 0.0005 297.61
0.466317 -0.014429 0.0005 295.147
0.464361 -0.0148331 0.0005 293.839
0.462406 -0.0152416 0.0005 291.038
0.460452 -0.0156557 0.0005 287.827
0.458499 -0.0160739 0.0005 285.484
0.456547 -0.0164961 0.0005 281.634
0.454595 -0.0169216 0.0005 279.341
0.452645 -0.0173502 0.0005 276.207
0.450695 -0.0177831 0.0005 272.598
0.448746 -0.0182194 0.0005 269.356
0.446797 -0.0186584 0.0005 266.047
0.444849 -0.0191001 0.0005 262.33
0.442902 -0.0195437 0.0005 259.768
0.440955 -0.0199899 0.0005 256.137
0.439009 -0.0204389 0.0005 252.571
0.437063 -0.0208897 0.0005 250.091
0.435118 -0.0213429 0.0005 246.067
0.433173 -0.0217986 0.0005 244.071
0.431229 -0.0222577 0.0005 239.989
0.429286 -0.0227213 0.0005 236.44
0.427345 -0.0231883 0.0005 232.328
0.425403 -0.0236581 0.0005 227.781
0.423462 -0.0241295 0.0005 225.124
0.421522 -0.0246036 0.0005 220.584
0.419583 -0.0250814 0.0005 216.017
0.417644 -0.0255613 0.0005 211.955
0.415706 -0.0260429 0.0005 206.79
0.413767 -0.0265251 0.0005 204.373
0.41183 -0.0270092 0.0005 199.037
0.409892 -0.0274958 0.0005 195.079
0.407956 -0.0279834 0.0005 190.729
0.406019 -0.0284722 0.0005 186.653
0.404083 -0.0289621 0.0005 183.236
0.402147 -0.0294547 0.0005 178.736
0.400212 -0.0299506 0.0005 173.903
0.398278 -0.0304492 0.0005 168.914
0.396345 -0.0309498 0.0005 164.207
0.394412 -0.0314524 0.0005 158.161
0.392479 -0.0319559 0.0005 154.332
0.390546 -0.0324607 0.0005 148.682
0.388614 -0.0329679 0.0005 143.228
0.386683 -0.0334764 0.0005 137.674
0.384752 -0.0339858 0.0005 131.171
0.38282 -0.0344945 0.0005 127.367
0.380889 -0.0350034 0.0005 121.651
0.378958 -0.0355138 0.0005 115.927
0.377027 -0.0360245 0.0005 110.766
0.375096 -0.0365354 0.0005 104.901
0.373165 -0.0370462 0.0005 101.306
0.371235 -0.0375588 0.0005 94.622
0.369305 -0.038074 0.0005 88.8404
0.367376 -0.0385907 0.0005 82.4341
0.365447 -0.0391088 0.0005 74.5565
0.363517 -0.0396264 0.0005 69.8413
0.361588 -0.0401443 0.0005 62.2113
0.35966 -0.0406635 0.0005 55.3622
0.357731 -0.0411828 0.0005 47.9537
0.355802 -0.0417017 0.0005 40.1997
0.353873 -0.0422189 0.0005 33.7732
0.351944 -0.0427344 0.0005 27.2257
0.350014 -0.0432493 0.0005 19.7701
0.348084 -0.043763 0.0005 13.0865
0.346153 -0.0442751 0.0005 6.8438
0.344222 -0.0447865 0.0005 -0.531244
0.342291 -0.0452973 0.0005 -5.7865
0.340361 -0.045809 0.0005 -14.6948
0.338431 -0.0463223 0.0005 -22.8237
0.3365 -0.0468355 0.0005 -31.5874
0.33457 -0.0473485 0.0005 -42.7388
0.332639 -0.0478588 0.0005 -48.8482
0.330707 -0.0483672 0.0005 -59.754
0.328776 -0.0488748 0.0005 -68.7402
0.326843 -0.0493797 0.0005 -79.1837
0.32491 -0.0498812 0.0005 -88.9321
0.322975 -0.0503779 0.0005 -97.4046
0.32104 -0.0508699 0.0005 -105.744
0.319103 -0.0513578 0.0005 -114.999
0.317165 -0.0518411 0.0005 -119.672
0.315226 -0.0523222 0.0005 -127.935
0.313288 -0.0528045 0.0005 -138.565
0.31135 -0.0532871 0.0005 -148.481
0.309412 -0.05377 0.0005 -162.709
0.307473 -0.054252 0.0005 -176.53
0.305534 -0.0547307 0.0005 -191.615
0.303594 -0.0552047 0.0005 -208.357
0.301652 -0.0556709 0.0005 -220.049
0.299708 -0.0561292 0.0005 -236.649
0.297762 -0.0565792 0.0005 -250.654
0.295813 -0.0570181 0.0005 -264.659
0.293862 -0.057444 0.0005 -277.713
0.291907 -0.0578545 0.0005 -285.505
0.28995 -0.0582491 0.0005 -287.202
0.287989 -0.0586324 0.0005 -287.861
0.286028 -0.059011 0.0005 -296.089
0.284067 -0.0593866 0.0005 -306.777
0.282104 -0.0597562 0.0005 -315.018
0.28014 -0.0601193 0.0005 -328.33
0.278174 -0.0604753 0.0005 -341.527
0.276207 -0.0608211 0.0005 -354.407
0.274238 -0.0611546 0.0005 -367.935
0.272266 -0.0614736 0.0005 -377.444
0.270292 -0.0617766 0.0005 -387.135
0.268315 -0.0620622 0.0005 -394.952
0.266336 -0.0623279 0.0005 -398.993
0.264353 -0.0625715 0.0005 -392.499
0.262369 -0.0627959 0.0005 -372.479
0.260383 -0.0630135 0.0005 -370.275
0.258398 -0.0632325 0.0005 -374.409
0.256413 -0.0634494 0.0005 -381.651
0.254426 -0.063661 0.0005 -391.667
0.25244 -0.0638642 0.0005 -402.353
0.250451 -0.064056 0.0005 -414.226
0.248462 -0.0642332 0.0005 -424.147
0.246471 -0.0643926 0.0005 -433.934
0.244479 -0.0645306 0.0005 -437.992
0.242485 -0.0646442 0.0005 -440.345
0.240489 -0.0647301 0.0005 -436.025
0.238493 -0.0647847 0.0005 -413.217
0.236496 -0.0648116 0.0005 -373
0.234498 -0.0648264 0.0005 -351.469
0.232501 -0.0648399 0.0005 -334.247
0.230504 -0.064852 0.0005 -321.091
0.228506 -0.0648632 0.0005 -312.285
0.226509 -0.0648734 0.0005 -304.756
0.224512 -0.0648822 0.0005 -300.156
0.222515 -0.0648897 0.0005 -296.219
0.220517 -0.064896 0.0005 -296.469
0.21852 -0.0649011 0.0005 -297.418
0.216523 -0.0649048 0.0005 -301.531
0.214525 -0.0649072 0.0005 -307.933
0.212528 -0.0649076 0.0005 -338.321
0.210531 -0.0648936 0.0005 -355.174
0.208534 -0.0648498 0.0005 -356.151
0.206538 -0.0647745 0.0005 -346.26
0.204544 -0.0646716 0.0005 -332.45
0.20255 -0.0645448 0.0005 -311.448
0.200558 -0.0643981 0.0005 -291.624
0.198568 -0.0642354 0.0005 -269.302
0.196578 -0.0640596 0.0005 -246.566
0.194589 -0.0638746 0.0005 -225.577
0.192601 -0.0636846 0.0005 -205.721
0.190613 -0.0634935 0.0005 -191.873
0.188625 -0.0633043 0.0005 -184.55
0.186636 -0.0631159 0.0005 -193.465
0.184649 -0.0629188 0.0005 -188.118
0.182663 -0.0627052 0.0005 -179.242
0.180679 -0.0624766 0.0005 -168.834
0.178696 -0.0622338 0.0005 -154.673
0.176715 -0.0619778 0.0005 -140.605
0.174736 -0.0617101 0.0005 -123.828
0.172758 -0.0614325 0.0005 -107.996
0.170781 -0.0611472 0.0005 -94.6911
0.168805 -0.0608547 0.0005 -79.985
0.166831 -0.0605556 0.0005 -65.2686
0.164857 -0.060252 0.0005 -54.3049
0.162883 -0.0599447 0.0005 -49.8563
0.160911 -0.0596296 0.0005 -43.0091
0.158941 -0.0593016 0.0005 -29.6856
0.156973 -0.0589605 0.0005 -16.4303
0.155007 -0.0586081 0.0005 -1.45549
0.153043 -0.0582449 0.0005 15.2353
0.15108 -0.0578728 0.0005 30.6157
0.149119 -0.0574931 0.0005 45.1818
0.14716 -0.0571057 0.0005 61.5164
0.145202 -0.0567116 0.0005 76.6468
0.143245 -0.0563124 0.0005 91.7217
0.141289 -0.0559091 0.0005 105.747
0.139333 -0.055503 0.0005 113.096
0.137379 -0.0550913 0.0005 124.661
0.135426 -0.0546708 0.0005 136.766
0.133475 -0.0542415 0.0005 150.989
0.131527 -0.0538043 0.0005 165.693
0.129579 -0.0533607 0.0005 176.764
0.127633 -0.0529099 0.0005 191.846
0.125689 -0.0524514 0.0005 205.894
0.123747 -0.0519865 0.0005 220.223
0.121806 -0.0515159 0.0005 235.91
0.119866 -0.0510413 0.0005 245.852
0.117927 -0.0505617 0.0005 260.612
0.115989 -0.0500761 0.0005 271.301
0.114054 -0.0495846 0.0005 284.573
0.112119 -0.0490859 0.0005 298.968
0.110187 -0.0485815 0.0005 309.063
0.108256 -0.0480701 0.0005 324.126
0.106327 -0.0475509 0.0005 336.886
0.104401 -0.0470249 0.0005 351.153
0.102476 -0.0464919 0.0005 365.59
0.100553 -0.0459527 0.0005 378.687
0.0986312 -0.0454074 0.0005 392.594
0.0967117 -0.0448553 0.0005 406.048
0.0947942 -0.0442964 0.0005 419.945
0.0928788 -0.0437302 0.0005 433.032
0.0909659 -0.0431557 0.0005 448.087
0.0890555 -0.0425728 0.0005 463.106
0.0871475 -0.0419823 0.0005 477.866
0.0852419 -0.0413839 0.0005 493.038
0.0833389 -0.0407776 0.0005 509.454
0.0814381 -0.0401641 0.0005 524.008
0.0795396 -0.0395435 0.0005 540.651
0.0776435 -0.0389158 0.0005 555.772
0.0757495 -0.0382817 0.0005 571.475
0.0738579 -0.0376405 0.0005 585.725
0.0719693 -0.0369906 0.0005 602.375
0.0700839 -0.0363313 0.0005 618.774
0.0682018 -0.0356629 0.0005 636.338
0.0663226 -0.0349861 0.0005 653.983
0.0644461 -0.034302 0.0005 670.911
0.0625722 -0.0336108 0.0005 688.811
0.0607008 -0.0329128 0.0005 706.249
0.0588316 -0.0322091 0.0005 723.646
0.0569644 -0.0315 0.0005 740.814
0.0550991 -0.0307858 0.0005 756.952
0.0532364 -0.030065 0.0005 774.299
0.0513766 -0.0293368 0.0005 791.886
0.0495196 -0.0286015 0.0005 809.129
0.0476655 -0.0278587 0.0005 827.355
0.0458145 -0.0271083 0.0005 845.226
0.0439665 -0.0263506 0.0005 863.238
0.0421219 -0.0255849 0.0005 881.826
0.0402805 -0.0248112 0.0005 900.582
0.0384422 -0.0240302 0.0005 919.186
0.036607 -0.023242 0.0005 937.924
0.034775 -0.0224463 0.0005 956.423
0.0329471 -0.0216418 0.0005 975.374
0.0311236 -0.0208263 0.0005 994.74
0.0293055 -0.0199984 0.0005 1014.4
0.027494 -0.0191572 0.0005 1034.25
0.0256893 -0.0183016 0.0005 1054.91
0.0238897 -0.0174335 0.0005 1074.02
0.0220958 -0.0165539 0.0005 1093.08
0.0203099 -0.0156596 0.0005 1111.41
0.0185336 -0.0147466 0.0005 1129.04
0.0167691 -0.0138107 0.0005 1144.84
0.0150191 -0.0128483 0.0005 1157.63
0.0132832 -0.0118605 0.0005 1167.02
0.0115596 -0.0108515 0.0005 1168.86
0.00985324 -0.00981366 0.0005 1166.15
0.00817516 -0.00873106 0.0005 1141.23
0.00653582 -0.00759091 0.0005 1110.63
0.00494406 -0.00638545 0.0005 1010.04
0.00341683 -0.00510013 0.0005 915.81
0.00198296 -0.00371272 0.0005 513.726
0.000749594 -0.00215804 0.0005 52.3372
