/*--------------------------------*- C++ -*----------------------------------*\
| =========                 |                                                 |
| \\      /  F ield         | OpenFOAM: The Open Source CFD Toolbox           |
|  \\    /   O peration     | Version:  v1912                                 |
|   \\  /    A nd           | Website:  www.openfoam.com                      |
|    \\/     M anipulation  |                                                 |
\*---------------------------------------------------------------------------*/
FoamFile
{
    version     2.0;
    format      ascii;
    class       volScalarField;
    location    "3000";
    object      epsilon;
}
// * * * * * * * * * * * * * * * * * * * * * * * * * * * * * * * * * * * * * //

dimensions      [0 2 -3 0 0 0 0];


internalField   nonuniform List<scalar> 
2500
(
0.0113776
0.012566
0.0154783
0.0203986
0.0274992
0.0368347
0.048345
0.0618819
0.0772416
0.0941913
0.11249
0.131903
0.152213
0.173227
0.194785
0.216753
0.239026
0.261523
0.284185
0.306964
0.329825
0.352737
0.375676
0.398618
0.421537
0.444409
0.467207
0.4899
0.512456
0.534839
0.557009
0.578923
0.600534
0.621789
0.642634
0.663006
0.682838
0.70206
0.720595
0.738361
0.755269
0.771224
0.786123
0.799854
0.812291
0.823288
0.832666
0.840205
0.845624
0.848563
0.012566
0.0100383
0.0100411
0.0117254
0.0147278
0.018851
0.0239499
0.0298929
0.0365517
0.0438025
0.0515289
0.0596254
0.0679995
0.0765732
0.0852836
0.0940815
0.10293
0.111803
0.120681
0.12955
0.138403
0.147231
0.156029
0.16479
0.17351
0.182181
0.190797
0.199348
0.207824
0.216216
0.224509
0.23269
0.240744
0.248653
0.256397
0.263956
0.271307
0.278424
0.285282
0.291849
0.298095
0.303986
0.309485
0.31455
0.319136
0.323189
0.326645
0.329422
0.331418
0.3325
0.0154783
0.0100411
0.00801387
0.00789748
0.00896957
0.0108601
0.0133616
0.0163414
0.0197021
0.0233647
0.0272619
0.0313362
0.0355396
0.0398328
0.044185
0.048573
0.0529802
0.0573949
0.0618093
0.0662186
0.0706195
0.0750097
0.0793875
0.0837509
0.0880981
0.0924264
0.0967328
0.101013
0.105264
0.109479
0.113653
0.117778
0.121847
0.125851
0.12978
0.133624
0.137369
0.141003
0.144511
0.147878
0.151087
0.154119
0.156953
0.159568
0.161939
0.164037
0.165827
0.167267
0.168303
0.168864
0.0203986
0.0117254
0.00789748
0.00654832
0.00656119
0.00739006
0.00875308
0.0104932
0.0125134
0.014747
0.0171434
0.0196627
0.022273
0.0249492
0.0276721
0.0304272
0.0332044
0.0359968
0.0387998
0.0416103
0.0444265
0.0472469
0.0500703
0.0528954
0.0557206
0.0585442
0.0613637
0.0641764
0.0669789
0.0697673
0.0725373
0.0752836
0.0780006
0.0806818
0.0833198
0.0859067
0.0884336
0.0908908
0.0932681
0.095554
0.0977359
0.0998007
0.101734
0.103519
0.10514
0.106575
0.1078
0.108786
0.109495
0.10988
0.0274992
0.0147278
0.00896957
0.00656119
0.00584823
0.00606548
0.00684058
0.00797847
0.00936811
0.0109404
0.0126484
0.0144584
0.0163451
0.0182897
0.020278
0.0223
0.0243483
0.0264182
0.0285063
0.0306106
0.0327293
0.0348614
0.0370054
0.0391602
0.041324
0.043495
0.0456708
0.0478487
0.0500255
0.0521977
0.054361
0.0565108
0.058642
0.0607489
0.0628251
0.0648637
0.0668571
0.0687972
0.0706753
0.072482
0.0742071
0.0758396
0.0773681
0.0787797
0.0800606
0.0811945
0.0821625
0.0829411
0.083501
0.0838047
0.0368347
0.018851
0.0108601
0.00739006
0.00606548
0.00584194
0.00623803
0.00701301
0.0080358
0.00922928
0.0105449
0.0119506
0.0134239
0.0149491
0.0165154
0.0181151
0.019743
0.0213956
0.0230709
0.0247671
0.0264833
0.0282184
0.0299712
0.0317404
0.0335243
0.035321
0.0371281
0.0389427
0.0407617
0.0425814
0.0443977
0.0462062
0.0480018
0.0497791
0.0515321
0.0532544
0.0549392
0.056579
0.0581662
0.0596925
0.061149
0.0625265
0.0638151
0.0650042
0.0660821
0.0670355
0.0678486
0.068502
0.0689716
0.0692262
0.048345
0.0239499
0.0133616
0.00875308
0.00684058
0.00623803
0.00633535
0.00684004
0.00759857
0.00852406
0.00956446
0.0106871
0.0118709
0.0131018
0.0143708
0.0156717
0.0170008
0.0183558
0.0197355
0.0211388
0.0225653
0.0240142
0.0254848
0.0269759
0.028486
0.0300132
0.0315553
0.0331095
0.0346725
0.0362408
0.0378102
0.0393764
0.0409343
0.0424787
0.0440037
0.0455033
0.0469708
0.0483995
0.0497821
0.0511111
0.0523786
0.0535764
0.0546959
0.0557279
0.0566622
0.0574877
0.058191
0.0587556
0.0591609
0.0593806
0.0618819
0.0298929
0.0163414
0.0104932
0.00797847
0.00701301
0.00684004
0.00710991
0.00764538
0.0083495
0.00916618
0.0100615
0.0110143
0.0120114
0.0130444
0.0141081
0.0151994
0.0163166
0.0174591
0.0186264
0.0198184
0.0210349
0.0222756
0.0235396
0.0248259
0.0261329
0.0274586
0.0288004
0.0301553
0.0315199
0.0328901
0.0342617
0.0356297
0.0369888
0.0383335
0.0396578
0.0409552
0.0422192
0.0434429
0.0446193
0.045741
0.0468005
0.04779
0.0487014
0.0495259
0.0502534
0.0508725
0.0513691
0.0517252
0.0519182
0.0772416
0.0365517
0.0197021
0.0125134
0.00936811
0.0080358
0.00759857
0.00764538
0.00797439
0.00847844
0.00909715
0.00979496
0.0105502
0.0113494
0.012184
0.0130491
0.0139416
0.0148599
0.0158034
0.0167719
0.0177656
0.0187846
0.0198289
0.0208982
0.0219918
0.0231086
0.0242471
0.0254052
0.0265802
0.0277689
0.0289678
0.0301727
0.0313788
0.032581
0.0337739
0.0349515
0.0361076
0.0372358
0.0383292
0.0393812
0.0403848
0.0413328
0.042218
0.0430329
0.0437695
0.044419
0.0449712
0.0454137
0.0457307
0.0459024
0.0941913
0.0438025
0.0233647
0.014747
0.0109404
0.00922928
0.00852406
0.0083495
0.00847844
0.00879325
0.009229
0.00974796
0.0103273
0.0109529
0.0116157
0.0123101
0.0130326
0.0137812
0.0145551
0.0153539
0.0161777
0.0170267
0.017901
0.0188009
0.0197259
0.0206756
0.0216488
0.0226441
0.0236593
0.0246919
0.0257386
0.0267956
0.0278586
0.0289228
0.0299828
0.031033
0.0320671
0.033079
0.0340618
0.0350088
0.0359134
0.0367686
0.0375675
0.038303
0.0389676
0.0395534
0.040051
0.0404494
0.0407347
0.0408891
0.11249
0.0515289
0.0272619
0.0171434
0.0126484
0.0105449
0.00956446
0.00916618
0.00909715
0.009229
0.00949172
0.00984489
0.0102641
0.0107339
0.0112444
0.0117891
0.0123638
0.0129659
0.0135937
0.0142465
0.0149241
0.0156264
0.0163537
0.017106
0.0178834
0.0186858
0.0195125
0.0203627
0.0212347
0.0221268
0.0230362
0.0239597
0.0248936
0.0258335
0.0267743
0.0277105
0.0286364
0.0295456
0.0304316
0.0312876
0.032107
0.0328829
0.0336086
0.0342772
0.0348815
0.035414
0.0358663
0.0362281
0.0364871
0.0366273
0.131903
0.0596254
0.0313362
0.0196627
0.0144584
0.0119506
0.0106871
0.0100615
0.00979496
0.00974796
0.00984489
0.0100421
0.010313
0.0106407
0.0110139
0.0114252
0.0118694
0.0123429
0.0128435
0.0133697
0.0139207
0.0144961
0.0150958
0.0157199
0.0163684
0.0170414
0.0177386
0.0184595
0.0192034
0.0199687
0.0207537
0.0215558
0.0223719
0.0231981
0.02403
0.0248625
0.02569
0.0265066
0.0273058
0.0280808
0.028825
0.0295315
0.0301937
0.0308045
0.0313573
0.0318445
0.0322584
0.0325894
0.0328263
0.0329544
0.152213
0.0679995
0.0355396
0.022273
0.0163451
0.0134239
0.0118709
0.0110143
0.0105502
0.0103273
0.0102641
0.010313
0.010445
0.0106411
0.0108889
0.0111793
0.0115064
0.0118656
0.0122538
0.0126688
0.0131092
0.0135741
0.0140628
0.0145752
0.0151112
0.0156708
0.016254
0.0168605
0.0174899
0.0181414
0.0188138
0.0195052
0.0202133
0.020935
0.0216664
0.0224031
0.0231399
0.0238713
0.024591
0.0252924
0.0259686
0.026613
0.0272187
0.0277789
0.0282865
0.0287346
0.0291153
0.0294199
0.0296379
0.0297557
0.173227
0.0765732
0.0398328
0.0249492
0.0182897
0.0149491
0.0131018
0.0120114
0.0113494
0.0109529
0.0107339
0.0106407
0.0106411
0.0107143
0.0108457
0.0110253
0.0112458
0.0115019
0.0117894
0.0121055
0.0124481
0.0128156
0.013207
0.0136217
0.0140592
0.0145195
0.0150024
0.0155078
0.0160356
0.0165853
0.0171562
0.0177472
0.0183565
0.0189819
0.0196203
0.0202679
0.0209202
0.0215721
0.0222179
0.0228509
0.0234646
0.0240522
0.0246067
0.0251212
0.0255887
0.026002
0.0263537
0.0266353
0.0268368
0.0269458
0.194785
0.0852836
0.044185
0.0276721
0.020278
0.0165154
0.0143708
0.0130444
0.012184
0.0116157
0.0112444
0.0110139
0.0108889
0.0108457
0.0108683
0.010945
0.0110673
0.011229
0.0114251
0.0116521
0.011907
0.0121878
0.012493
0.0128214
0.0131723
0.0135452
0.0139399
0.0143561
0.0147938
0.0152529
0.0157328
0.016233
0.0167524
0.0172893
0.0178416
0.0184062
0.0189794
0.0195567
0.0201328
0.0207016
0.0212567
0.0217913
0.0222984
0.022771
0.0232019
0.023584
0.0239097
0.0241708
0.0243578
0.024459
0.216753
0.0940815
0.048573
0.0304272
0.0223
0.0181151
0.0156717
0.0141081
0.0130491
0.0123101
0.0117891
0.0114252
0.0111793
0.0110253
0.010945
0.0109251
0.0109561
0.0110305
0.0111426
0.0112881
0.0114636
0.0116663
0.0118941
0.0121456
0.0124195
0.0127151
0.0130317
0.0133692
0.0137271
0.0141056
0.0145042
0.0149228
0.0153607
0.0158169
0.0162898
0.0167773
0.0172764
0.0177832
0.0182934
0.0188012
0.0193006
0.019785
0.0202475
0.0206809
0.0210779
0.0214312
0.0217332
0.0219758
0.0221498
0.022244
0.239026
0.10293
0.0529802
0.0332044
0.0243483
0.019743
0.0170008
0.0151994
0.0139416
0.0130326
0.0123638
0.0118694
0.0115064
0.0112458
0.0110673
0.0109561
0.0109011
0.0108939
0.0109281
0.0109984
0.011101
0.0112324
0.0113902
0.0115723
0.0117772
0.0120037
0.012251
0.0125183
0.0128055
0.0131123
0.0134385
0.0137839
0.0141483
0.0145311
0.0149313
0.0153474
0.0157773
0.0162178
0.0166654
0.0171151
0.0175612
0.0179975
0.0184173
0.0188133
0.0191782
0.0195045
0.0197845
0.02001
0.0201721
0.0202599
0.261523
0.111803
0.0573949
0.0359968
0.0264182
0.0213956
0.0183558
0.0163166
0.0148599
0.0137812
0.0129659
0.0123429
0.0118656
0.0115019
0.011229
0.0110305
0.0108939
0.0108098
0.0107709
0.0107712
0.0108062
0.010872
0.0109656
0.0110846
0.011227
0.0113912
0.0115761
0.0117809
0.0120049
0.0122478
0.0125093
0.0127893
0.0130876
0.013404
0.0137379
0.0140884
0.014454
0.0148324
0.0152206
0.0156148
0.0160096
0.0163995
0.0167779
0.0171379
0.0174719
0.0177724
0.0180315
0.0182409
0.0183918
0.0184737
0.284185
0.120681
0.0618093
0.0387998
0.0285063
0.0230709
0.0197355
0.0174591
0.0158034
0.0145551
0.0135937
0.0128435
0.0122538
0.0117894
0.0114251
0.0111426
0.0109281
0.0107709
0.0106628
0.0105973
0.0105691
0.0105739
0.0106082
0.0106691
0.0107543
0.0108619
0.0109904
0.0111388
0.0113061
0.0114917
0.0116953
0.0119167
0.0121557
0.0124123
0.012686
0.0129765
0.0132826
0.0136031
0.0139354
0.0142766
0.0146222
0.0149671
0.0153053
0.01563
0.0159339
0.0162093
0.0164482
0.0166422
0.0167824
0.0168587
0.306964
0.12955
0.0662186
0.0416103
0.0306106
0.0247671
0.0211388
0.0186264
0.0167719
0.0153539
0.0142465
0.0133697
0.0126688
0.0121055
0.0116521
0.0112881
0.0109984
0.0107712
0.0105973
0.0104694
0.0103816
0.0103292
0.0103081
0.0103152
0.0103476
0.0104033
0.0104804
0.0105775
0.0106935
0.0108276
0.0109792
0.0111479
0.0113337
0.0115363
0.0117556
0.0119913
0.012243
0.0125097
0.0127897
0.0130807
0.0133791
0.0136804
0.0139793
0.0142694
0.0145435
0.0147942
0.0150131
0.015192
0.0153219
0.0153927
0.329825
0.138403
0.0706195
0.0444265
0.0327293
0.0264833
0.0225653
0.0198184
0.0177656
0.0161777
0.0149241
0.0139207
0.0131092
0.0124481
0.011907
0.0114636
0.011101
0.0108062
0.0105691
0.0103816
0.0102373
0.0101308
0.0100577
0.0100143
0.00999776
0.0100054
0.0100351
0.0100853
0.0101546
0.0102419
0.0103465
0.0104678
0.0106056
0.0107595
0.0109297
0.0111158
0.0113177
0.0115348
0.011766
0.0120097
0.0122631
0.0125224
0.0127829
0.0130389
0.0132836
0.0135096
0.0137088
0.0138726
0.0139921
0.0140576
0.352737
0.147231
0.0750097
0.0472469
0.0348614
0.0282184
0.0240142
0.0210349
0.0187846
0.0170267
0.0156264
0.0144961
0.0135741
0.0128156
0.0121878
0.0116663
0.0112324
0.010872
0.0105739
0.0103292
0.0101308
0.0099728
0.00985045
0.00975968
0.00969714
0.00965998
0.00964585
0.00965279
0.00967919
0.00972379
0.00978561
0.00986394
0.00995829
0.0100684
0.0101941
0.0103353
0.0104918
0.0106635
0.0108496
0.011049
0.0112597
0.0114786
0.0117019
0.0119243
0.0121398
0.012341
0.0125202
0.0126689
0.012778
0.012838
0.375676
0.156029
0.0793875
0.0500703
0.0370054
0.0299712
0.0254848
0.0222756
0.0198289
0.017901
0.0163537
0.0150958
0.0140628
0.013207
0.012493
0.0118941
0.0113902
0.0109656
0.0106082
0.0103081
0.0100577
0.00985045
0.00968117
0.00954542
0.00943952
0.00936033
0.00930522
0.00927198
0.00925878
0.00926412
0.00928682
0.00932597
0.00938092
0.00945124
0.00953668
0.00963711
0.00975246
0.00988259
0.0100271
0.0101854
0.010356
0.0105365
0.0107237
0.0109133
0.0110997
0.0112761
0.0114351
0.0115683
0.0116668
0.0117212
0.398618
0.16479
0.0837509
0.0528954
0.0391602
0.0317404
0.0269759
0.0235396
0.0208982
0.0188009
0.017106
0.0157199
0.0145752
0.0136217
0.0128214
0.0121456
0.0115723
0.0110846
0.0106691
0.0103152
0.0100143
0.00975968
0.00954542
0.00936678
0.00921971
0.00910081
0.00900718
0.00893638
0.00888634
0.00885536
0.00884205
0.00884529
0.00886428
0.00889841
0.00894731
0.00901076
0.00908866
0.00918093
0.00928739
0.00940759
0.00954069
0.00968485
0.00983752
0.00999509
0.0101527
0.0103044
0.0104429
0.0105603
0.0106478
0.0106965
0.421537
0.17351
0.0880981
0.0557206
0.041324
0.0335243
0.028486
0.0248259
0.0219918
0.0197259
0.0178834
0.0163684
0.0151112
0.0140592
0.0131723
0.0124195
0.0117772
0.011227
0.0107543
0.0103476
0.00999776
0.00969714
0.00943952
0.00921971
0.00903333
0.0088767
0.00874665
0.0086405
0.00855598
0.00849118
0.0084445
0.00841466
0.00840064
0.00840169
0.00841729
0.00844711
0.00849096
0.00854875
0.00862037
0.00870557
0.00880381
0.00891385
0.00903362
0.00916027
0.0092897
0.00941658
0.00953439
0.00963558
0.00971187
0.00975451
0.444409
0.182181
0.0924264
0.0585442
0.043495
0.035321
0.0300132
0.0261329
0.0231086
0.0206756
0.0186858
0.0170414
0.0156708
0.0145195
0.0135452
0.0127151
0.0120037
0.0113912
0.0108619
0.0104033
0.0100054
0.00965998
0.00936033
0.00910081
0.0088767
0.008684
0.00851931
0.00837972
0.00826273
0.00816624
0.00808846
0.00802794
0.00798348
0.00795415
0.00793929
0.00793841
0.00795123
0.0079776
0.00801741
0.0080705
0.00813653
0.00821471
0.00830343
0.00840044
0.00850242
0.0086048
0.00870179
0.00878647
0.00885111
0.00888753
0.467207
0.190797
0.0967328
0.0613637
0.0456708
0.0371281
0.0315553
0.0274586
0.0242471
0.0216488
0.0195125
0.0177386
0.016254
0.0150024
0.0139399
0.0130317
0.012251
0.0115761
0.0109904
0.0104804
0.0100351
0.00964585
0.00930522
0.00900718
0.00874665
0.00851931
0.0083215
0.00815008
0.00800234
0.007876
0.00776908
0.00767995
0.00760724
0.00754987
0.00750699
0.007478
0.00746248
0.00746018
0.00747094
0.00749463
0.00753102
0.00757963
0.00763922
0.00770808
0.00778357
0.00786192
0.00793813
0.00800608
0.00805877
0.00808875
0.4899
0.199348
0.101013
0.0641764
0.0478487
0.0389427
0.0331095
0.0288004
0.0254052
0.0226441
0.0203627
0.0184595
0.0168605
0.0155078
0.0143561
0.0133692
0.0125183
0.0117809
0.0111388
0.0105775
0.0100853
0.00965279
0.00927198
0.00893638
0.0086405
0.00837972
0.00815008
0.00794821
0.00777121
0.00761658
0.00748219
0.00736623
0.00726717
0.00718377
0.00711502
0.00706018
0.00701867
0.00699015
0.00697436
0.00697116
0.00698035
0.00700162
0.00703406
0.00707639
0.00712656
0.00718156
0.00723726
0.00728842
0.00732893
0.0073523
0.512456
0.207824
0.105264
0.0669789
0.0500255
0.0407617
0.0346725
0.0301553
0.0265802
0.0236593
0.0212347
0.0192034
0.0174899
0.0160356
0.0147938
0.0137271
0.0128055
0.0120049
0.0113061
0.0106935
0.0101546
0.00967919
0.00925878
0.00888634
0.00855598
0.00826273
0.00800234
0.00777121
0.0075662
0.00738464
0.00722422
0.00708296
0.00695919
0.0068515
0.00675874
0.00668001
0.0066146
0.00656202
0.00652194
0.00649411
0.00647836
0.00647443
0.00648174
0.00649923
0.00652541
0.00655797
0.00659362
0.00662812
0.00665639
0.00667303
0.534839
0.216216
0.109479
0.0697673
0.0521977
0.0425814
0.0362408
0.0315199
0.0277689
0.0246919
0.0221268
0.0199687
0.0181414
0.0165853
0.0152529
0.0141056
0.0131123
0.0122478
0.0114917
0.0108276
0.0102419
0.00972379
0.00926412
0.00885536
0.00849118
0.00816624
0.007876
0.00761658
0.00738464
0.00717731
0.0069921
0.00682687
0.00667979
0.00654932
0.00643415
0.00633323
0.00624573
0.00617102
0.00610863
0.00605826
0.00601965
0.00599257
0.00597666
0.00597106
0.0059747
0.00598589
0.0060022
0.00602036
0.00603647
0.00604637
0.557009
0.224509
0.113653
0.0725373
0.054361
0.0443977
0.0378102
0.0328901
0.0289678
0.0257386
0.0230362
0.0207537
0.0188138
0.0171562
0.0157328
0.0145042
0.0134385
0.0125093
0.0116953
0.0109792
0.0103465
0.00978561
0.00928682
0.00884205
0.0084445
0.00808846
0.00776908
0.00748219
0.00722422
0.0069921
0.00678316
0.00659509
0.00642593
0.00627398
0.00613778
0.00601617
0.00590816
0.00581298
0.00573007
0.00565898
0.00559942
0.00555112
0.00551382
0.00548685
0.00546947
0.00546054
0.00545838
0.00546076
0.00546497
0.00546822
0.578923
0.23269
0.117778
0.0752836
0.0565108
0.0462062
0.0393764
0.0342617
0.0301727
0.0267956
0.0239597
0.0215558
0.0195052
0.0177472
0.016233
0.0149228
0.0137839
0.0127893
0.0119167
0.0111479
0.0104678
0.00986394
0.00932597
0.00884529
0.00841466
0.00802794
0.00767995
0.00736623
0.00708296
0.00682687
0.00659509
0.00638517
0.00619497
0.00602265
0.00586664
0.00572561
0.00559846
0.00548429
0.00538241
0.00529226
0.00521346
0.0051457
0.00508873
0.00504209
0.00500525
0.00497754
0.00495798
0.00494531
0.00493806
0.00493485
0.600534
0.240744
0.121847
0.0780006
0.058642
0.0480018
0.0409343
0.0356297
0.0313788
0.0278586
0.0248936
0.0223719
0.0202133
0.0183565
0.0167524
0.0153607
0.0141483
0.0130876
0.0121557
0.0113337
0.0106056
0.00995829
0.00938092
0.00886428
0.00840064
0.00798348
0.00760724
0.00726717
0.00695919
0.00667979
0.00642593
0.00619497
0.00598462
0.0057929
0.0056181
0.00545877
0.00531367
0.00518179
0.00506231
0.00495456
0.00485805
0.00477243
0.00469741
0.00463274
0.00457799
0.0045329
0.00449713
0.00447034
0.00445226
0.00444289
0.621789
0.248653
0.125851
0.0806818
0.0607489
0.0497791
0.0424787
0.0369888
0.032581
0.0289228
0.0258335
0.0231981
0.020935
0.0189819
0.0172893
0.0158169
0.0145311
0.013404
0.0124123
0.0115363
0.0107595
0.0100684
0.00945124
0.00889841
0.00840169
0.00795415
0.00754987
0.00718377
0.0068515
0.00654932
0.00627398
0.00602265
0.0057929
0.00558259
0.00538989
0.00521321
0.00505121
0.00490273
0.00476683
0.00464277
0.00452993
0.0044279
0.00433636
0.00425516
0.00418403
0.00412302
0.00407236
0.00403253
0.00400438
0.00398929
0.642634
0.256397
0.12978
0.0833198
0.0628251
0.0515321
0.0440037
0.0383335
0.0337739
0.0299828
0.0267743
0.02403
0.0216664
0.0196203
0.0178416
0.0162898
0.0149313
0.0137379
0.012686
0.0117556
0.0109297
0.0101941
0.00953668
0.00894731
0.00841729
0.00793929
0.00750699
0.00711502
0.00675874
0.00643415
0.00613778
0.00586664
0.0056181
0.00538989
0.00518004
0.00498684
0.0048088
0.00464469
0.00449343
0.00435418
0.00422624
0.00410911
0.00400246
0.00390617
0.00382015
0.0037447
0.00368055
0.0036289
0.00359164
0.00357135
0.663006
0.263956
0.133624
0.0859067
0.0648637
0.0532544
0.0455033
0.0396578
0.0349515
0.031033
0.0277105
0.0248625
0.0224031
0.0202679
0.0184062
0.0167773
0.0153474
0.0140884
0.0129765
0.0119913
0.0111158
0.0103353
0.00963711
0.00901076
0.00844711
0.00793841
0.007478
0.00706018
0.00668001
0.00633323
0.00601617
0.00572561
0.00545877
0.00521321
0.00498684
0.00477779
0.00458449
0.00440557
0.00423987
0.00408642
0.00394447
0.00381344
0.00369296
0.00358295
0.00348352
0.00339516
0.00331901
0.00325694
0.00321167
0.00318684
0.682838
0.271307
0.137369
0.0884336
0.0668571
0.0549392
0.0469708
0.0409552
0.0361076
0.0320671
0.0286364
0.02569
0.0231399
0.0209202
0.0189794
0.0172764
0.0157773
0.014454
0.0132826
0.012243
0.0113177
0.0104918
0.00975246
0.00908866
0.00849096
0.00795123
0.00746248
0.00701867
0.0066146
0.00624573
0.00590816
0.00559846
0.00531367
0.00505121
0.0048088
0.00458449
0.00437657
0.00418355
0.0040042
0.00383744
0.00368246
0.00353861
0.00340553
0.00328314
0.00317177
0.00307207
0.00298558
0.00291466
0.00286271
0.00283413
0.70206
0.278424
0.141003
0.0908908
0.0687972
0.056579
0.0483995
0.0422192
0.0372358
0.033079
0.0295456
0.0265066
0.0238713
0.0215721
0.0195567
0.0177832
0.0162178
0.0148324
0.0136031
0.0125097
0.0115348
0.0106635
0.00988259
0.00918093
0.00854875
0.0079776
0.00746018
0.00699015
0.00656202
0.00617102
0.00581298
0.00548429
0.00518179
0.00490273
0.00464469
0.00440557
0.00418355
0.00397706
0.00378474
0.00360546
0.00343834
0.00328271
0.0031382
0.00300481
0.00288299
0.00277369
0.0026787
0.00260077
0.00254372
0.00251236
0.720595
0.285282
0.144511
0.0932681
0.0706753
0.0581662
0.0497821
0.0434429
0.0383292
0.0340618
0.0304316
0.0273058
0.024591
0.0222179
0.0201328
0.0182934
0.0166654
0.0152206
0.0139354
0.0127897
0.011766
0.0108496
0.0100271
0.00928739
0.00862037
0.00801741
0.00747094
0.00697436
0.00652194
0.00610863
0.00573007
0.00538241
0.00506231
0.00476683
0.00449343
0.00423987
0.0040042
0.00378474
0.00358006
0.00338898
0.00321056
0.00304414
0.0028894
0.00274643
0.00261586
0.00249891
0.00239758
0.00231485
0.00225459
0.0022216
0.738361
0.291849
0.147878
0.095554
0.072482
0.0596925
0.0511111
0.0446193
0.0393812
0.0350088
0.0312876
0.0280808
0.0252924
0.0228509
0.0207016
0.0188012
0.0171151
0.0156148
0.0142766
0.0130807
0.0120097
0.011049
0.0101854
0.00940759
0.00870557
0.0080705
0.00749463
0.00697116
0.00649411
0.00605826
0.00565898
0.00529226
0.00495456
0.00464277
0.00435418
0.00408642
0.00383744
0.00360546
0.00338898
0.00318677
0.00299788
0.00282171
0.00265802
0.00250706
0.00236969
0.00224739
0.0021423
0.00205733
0.00199607
0.00196281
0.755269
0.298095
0.151087
0.0977359
0.0742071
0.061149
0.0523786
0.045741
0.0403848
0.0359134
0.032107
0.028825
0.0259686
0.0234646
0.0212567
0.0193006
0.0175612
0.0160096
0.0146222
0.0133791
0.0122631
0.0112597
0.010356
0.00954069
0.00880381
0.00813653
0.00753102
0.00698035
0.00647836
0.00601965
0.00559942
0.00521346
0.00485805
0.00452993
0.00422624
0.00394447
0.00368246
0.00343834
0.00321056
0.00299788
0.0027994
0.0026146
0.00244342
0.00228636
0.00214452
0.0020196
0.00191372
0.00182945
0.00176961
0.00173748
0.771224
0.303986
0.154119
0.0998007
0.0758396
0.0625265
0.0535764
0.0468005
0.0413328
0.0367686
0.0328829
0.0295315
0.026613
0.0240522
0.0217913
0.019785
0.0179975
0.0163995
0.0149671
0.0136804
0.0125224
0.0114786
0.0105365
0.00968485
0.00891385
0.00821471
0.00757963
0.00700162
0.00647443
0.00599257
0.00555112
0.0051457
0.00477243
0.0044279
0.00410911
0.00381344
0.00353861
0.00328271
0.00304414
0.00282171
0.0026146
0.00242248
0.00224556
0.00208465
0.00194109
0.00181668
0.0017133
0.00163271
0.00157658
0.00154688
0.786123
0.309485
0.156953
0.101734
0.0773681
0.0638151
0.0546959
0.04779
0.042218
0.0375675
0.0336086
0.0301937
0.0272187
0.0246067
0.0222984
0.0202475
0.0184173
0.0167779
0.0153053
0.0139793
0.0127829
0.0117019
0.0107237
0.00983752
0.00903362
0.00830343
0.00763922
0.00703406
0.00648174
0.00597666
0.00551382
0.00508873
0.00469741
0.00433636
0.00400246
0.00369296
0.00340553
0.0031382
0.0028894
0.00265802
0.00244342
0.00224556
0.002065
0.00190287
0.00176073
0.00164015
0.00154241
0.00146809
0.00141746
0.00139107
0.799854
0.31455
0.159568
0.103519
0.0787797
0.0650042
0.0557279
0.0487014
0.0430329
0.038303
0.0342772
0.0308045
0.0277789
0.0251212
0.022771
0.0206809
0.0188133
0.0171379
0.01563
0.0142694
0.0130389
0.0119243
0.0109133
0.00999509
0.00916027
0.00840044
0.00770808
0.00707639
0.00649923
0.00597106
0.00548685
0.00504209
0.00463274
0.00425516
0.00390617
0.00358295
0.00328314
0.00300481
0.00274643
0.00250706
0.00228636
0.00208465
0.00190287
0.00174246
0.00160489
0.0014912
0.00140156
0.00133521
0.00129098
0.00126828
0.812291
0.319136
0.161939
0.10514
0.0800606
0.0660821
0.0566622
0.0495259
0.0437695
0.0389676
0.0348815
0.0313573
0.0282865
0.0255887
0.0232019
0.0210779
0.0191782
0.0174719
0.0159339
0.0145435
0.0132836
0.0121398
0.0110997
0.0101527
0.0092897
0.00850242
0.00778357
0.00712656
0.00652541
0.0059747
0.00546947
0.00500525
0.00457799
0.00418403
0.00382015
0.00348352
0.00317177
0.00288299
0.00261586
0.00236969
0.00214452
0.00194109
0.00176073
0.00160489
0.00147464
0.00137
0.00128978
0.00123188
0.00119405
0.00117487
0.823288
0.323189
0.164037
0.106575
0.0811945
0.0670355
0.0574877
0.0502534
0.044419
0.0395534
0.035414
0.0318445
0.0287346
0.026002
0.023584
0.0214312
0.0195045
0.0177724
0.0162093
0.0147942
0.0135096
0.012341
0.0112761
0.0103044
0.00941658
0.0086048
0.00786192
0.00718156
0.00655797
0.00598589
0.00546054
0.00497754
0.0045329
0.00412302
0.0037447
0.00339516
0.00307207
0.00277369
0.00249891
0.00224739
0.0020196
0.00181668
0.00164015
0.0014912
0.00137
0.00127528
0.00120449
0.00115448
0.00112234
0.00110622
0.832666
0.326645
0.165827
0.1078
0.0821625
0.0678486
0.058191
0.0508725
0.0449712
0.040051
0.0358663
0.0322584
0.0291153
0.0263537
0.0239097
0.0217332
0.0197845
0.0180315
0.0164482
0.0150131
0.0137088
0.0125202
0.0114351
0.0104429
0.00953439
0.00870179
0.00793813
0.00723726
0.00659362
0.0060022
0.00545838
0.00495798
0.00449713
0.00407236
0.00368055
0.00331901
0.00298558
0.0026787
0.00239758
0.0021423
0.00191372
0.0017133
0.00154241
0.00140156
0.00128978
0.00120449
0.00114207
0.00109873
0.00107126
0.00105761
0.840205
0.329422
0.167267
0.108786
0.0829411
0.068502
0.0587556
0.0513691
0.0454137
0.0404494
0.0362281
0.0325894
0.0294199
0.0266353
0.0241708
0.0219758
0.02001
0.0182409
0.0166422
0.015192
0.0138726
0.0126689
0.0115683
0.0105603
0.00963558
0.00878647
0.00800608
0.00728842
0.00662812
0.00602036
0.00546076
0.00494531
0.00447034
0.00403253
0.0036289
0.00325694
0.00291466
0.00260077
0.00231485
0.00205733
0.00182945
0.00163271
0.00146809
0.00133521
0.00123188
0.00115448
0.00109873
0.00106056
0.0010367
0.00102499
0.845624
0.331418
0.168303
0.109495
0.083501
0.0689716
0.0591609
0.0517252
0.0457307
0.0407347
0.0364871
0.0328263
0.0296379
0.0268368
0.0243578
0.0221498
0.0201721
0.0183918
0.0167824
0.0153219
0.0139921
0.012778
0.0116668
0.0106478
0.00971187
0.00885111
0.00805877
0.00732893
0.00665639
0.00603647
0.00546497
0.00493806
0.00445226
0.00400438
0.00359164
0.00321167
0.00286271
0.00254372
0.00225459
0.00199607
0.00176961
0.00157658
0.00141746
0.00129098
0.00119405
0.00112234
0.00107126
0.0010367
0.00101543
0.0010052
0.848563
0.3325
0.168864
0.10988
0.0838047
0.0692262
0.0593806
0.0519182
0.0459024
0.0408891
0.0366273
0.0329544
0.0297557
0.0269458
0.024459
0.022244
0.0202599
0.0184737
0.0168587
0.0153927
0.0140576
0.012838
0.0117212
0.0106965
0.00975451
0.00888753
0.00808875
0.0073523
0.00667303
0.00604637
0.00546822
0.00493485
0.00444289
0.00398929
0.00357135
0.00318684
0.00283413
0.00251236
0.0022216
0.00196281
0.00173748
0.00154688
0.00139107
0.00126828
0.00117487
0.00110622
0.00105761
0.00102499
0.0010052
0.000995963
)
;

boundaryField
{
    bottomWall
    {
        lowReCorrection 0;
        type            epsilonWallFunction;
        value           nonuniform List<scalar> 
50
(
0.0113776
0.012566
0.0154783
0.0203986
0.0274992
0.0368347
0.048345
0.0618819
0.0772416
0.0941913
0.11249
0.131903
0.152213
0.173227
0.194785
0.216753
0.239026
0.261523
0.284185
0.306964
0.329825
0.352737
0.375676
0.398618
0.421537
0.444409
0.467207
0.4899
0.512456
0.534839
0.557009
0.578923
0.600534
0.621789
0.642634
0.663006
0.682838
0.70206
0.720595
0.738361
0.755269
0.771224
0.786123
0.799854
0.812291
0.823288
0.832666
0.840205
0.845624
0.848563
)
;
    }
    leftWall
    {
        lowReCorrection 0;
        type            epsilonWallFunction;
        value           nonuniform List<scalar> 
50
(
0.0113776
0.012566
0.0154783
0.0203986
0.0274992
0.0368347
0.048345
0.0618819
0.0772416
0.0941913
0.11249
0.131903
0.152213
0.173227
0.194785
0.216753
0.239026
0.261523
0.284185
0.306964
0.329825
0.352737
0.375676
0.398618
0.421537
0.444409
0.467207
0.4899
0.512456
0.534839
0.557009
0.578923
0.600534
0.621789
0.642634
0.663006
0.682838
0.70206
0.720595
0.738361
0.755269
0.771224
0.786123
0.799854
0.812291
0.823288
0.832666
0.840205
0.845624
0.848563
)
;
    }
    topSym
    {
        type            symmetryPlane;
    }
    rightSym
    {
        type            symmetryPlane;
    }
    inlet
    {
        type            cyclic;
    }
    outlet
    {
        type            cyclic;
    }
}


// ************************************************************************* //
