/*--------------------------------*- C++ -*----------------------------------*\
| =========                 |                                                 |
| \\      /  F ield         | OpenFOAM: The Open Source CFD Toolbox           |
|  \\    /   O peration     | Version:  v1912                                 |
|   \\  /    A nd           | Website:  www.openfoam.com                      |
|    \\/     M anipulation  |                                                 |
\*---------------------------------------------------------------------------*/
FoamFile
{
    version     2.0;
    format      ascii;
    class       volTensorField;
    location    "3000";
    object      grad(U);
}
// * * * * * * * * * * * * * * * * * * * * * * * * * * * * * * * * * * * * * //

dimensions      [0 0 -1 0 0 0 0];


internalField   nonuniform List<tensor> 
2500
(
(0 0 0 0.530813 -5.31344e-06 -1.17537e-05 0.530813 -1.17537e-05 -5.31343e-06)
(-1.60729e-18 1.22627e-23 4.90507e-23 0.422181 -2.7937e-05 -1.80023e-05 1.3411 2.52096e-05 1.83633e-05)
(0 0 0 0.395128 -9.59891e-05 -2.79744e-05 2.14648 -2.67413e-05 6.02134e-05)
(-5.68921e-18 6.94484e-22 0 0.378216 -0.000192568 -3.87756e-05 2.96023 -0.000207885 0.000127095)
(-5.35181e-18 1.30659e-21 0 0.365083 -0.000310474 -5.9073e-05 3.78698 -0.000590858 0.000197528)
(-1.00688e-17 0 6.14552e-22 0.352324 -0.000403158 -9.26967e-05 4.62703 -0.00120487 0.000215295)
(0 0 0 0.338308 -0.000411829 -0.000136646 5.47771 -0.00195252 0.000112666)
(0 0 0 0.322519 -0.000301173 -0.000182152 6.33453 -0.00259557 -0.000154777)
(0 0 0 0.305088 -7.78837e-05 -0.000220163 7.19212 -0.00281806 -0.000584367)
(0 0 0 0.28647 0.000216637 -0.00024609 8.045 -0.00232579 -0.00113439)
(0 0 0 0.267204 0.000528231 -0.00025994 8.8881 -0.000922057 -0.00174774)
(-2.7908e-17 0 6.81348e-21 0.247824 0.000809348 -0.000264357 9.71714 0.00146208 -0.0023727)
(-1.31265e-17 0 6.4094e-21 0.228818 0.00102916 -0.000262692 10.5288 0.00477641 -0.00297423)
(0 0 0 0.210553 0.00117518 -0.000257791 11.3208 0.008884 -0.00353609)
(-2.32313e-17 0 1.13434e-20 0.193277 0.00124946 -0.00025157 12.0918 0.0136011 -0.00405713)
(0 2.13414e-20 0 0.177159 0.00126305 -0.000245043 12.8412 0.0187326 -0.00454567)
(0 0 0 0.162266 0.00123081 -0.000238608 13.569 0.024098 -0.00501408)
(-1.93383e-17 -3.77702e-20 3.77702e-20 0.1486 0.00116769 -0.000232309 14.2757 0.0295459 -0.00547503)
(0 0 1.77651e-20 0.136112 0.00108666 -0.000226036 14.9621 0.0349603 -0.00593926)
(-1.71126e-17 0 1.67115e-20 0.124723 0.000997761 -0.000219649 15.6292 0.0402597 -0.00641473)
(0 0 0 0.114348 0.000908119 -0.000213027 16.2777 0.0453928 -0.00690639)
(0 0 0 0.104895 0.00082226 -0.000206114 16.9088 0.0503326 -0.00741673)
(0 0 0 0.0962691 0.00074267 -0.000198878 17.5232 0.0550698 -0.0079462)
(0 0 0 0.0883809 0.000670343 -0.00019134 18.1216 0.0596064 -0.00849386)
(0 0 0 0.0811528 0.000605224 -0.000183545 18.7046 0.0639505 -0.00905774)
(-4.74314e-17 0 2.31599e-20 0.0745168 0.000546729 -0.000175545 19.2728 0.0681124 -0.00963534)
(2.23092e-17 1.74291e-19 -6.53591e-20 0.0684058 0.000493875 -0.000167387 19.8263 0.0721012 -0.0102239)
(0 0 0 0.0627698 0.00044541 -0.000159132 20.3655 0.075921 -0.0108203)
(3.94831e-17 1.54231e-19 -3.85577e-20 0.0575621 0.000400214 -0.000150833 20.8905 0.0795693 -0.0114217)
(-3.71415e-17 0 3.6271e-20 0.0527378 0.000357192 -0.000142527 21.4013 0.0830354 -0.0120251)
(0 0 0 0.0482628 0.000315264 -0.000134261 21.8977 0.0862985 -0.0126277)
(3.28667e-17 1.28386e-19 -3.20964e-20 0.0441043 0.00027345 -0.000126066 22.3795 0.0893268 -0.0132265)
(0 0 0 0.0402353 0.000231026 -0.000117962 22.8465 0.0920748 -0.013819)
(0 0 0 0.0366276 0.000187372 -0.000109974 23.2981 0.094485 -0.0144024)
(-2.73591e-17 -2.13743e-19 5.34357e-20 0.033262 0.000141929 -0.000102122 23.7342 0.0964843 -0.0149742)
(-5.1473e-17 -2.01067e-19 5.02666e-20 0.0301161 9.43883e-05 -9.4417e-05 24.154 0.0979853 -0.0155317)
(-4.84204e-17 -1.89142e-19 0 0.0271727 4.4705e-05 -8.68793e-05 24.5567 0.0988863 -0.0160727)
(0 0 8.89624e-20 0.0244194 -6.88814e-06 -7.95192e-05 24.9415 0.0990737 -0.016595)
(4.28474e-17 1.67373e-19 -8.36864e-20 0.0218356 -6.01735e-05 -7.23412e-05 25.308 0.0984255 -0.0170961)
(4.03063e-17 1.57447e-19 -7.87233e-20 0.0194133 -0.000114666 -6.5356e-05 25.6549 0.0968079 -0.0175738)
(-3.79159e-17 0 0 0.0171403 -0.000169533 -5.85734e-05 25.9813 0.0940862 -0.0180264)
(0 -1.39325e-19 0 0.0150032 -0.000223571 -5.19974e-05 26.2861 0.0901286 -0.0184517)
(0 0 0 0.0129881 -0.000275351 -4.56237e-05 26.5678 0.0848225 -0.0188484)
(3.15622e-17 0 0 0.011085 -0.00032318 -3.9441e-05 26.8252 0.078077 -0.0192143)
(0 -1.15978e-19 5.79889e-20 0.00927946 -0.000365501 -3.3419e-05 27.0564 0.0698468 -0.0195476)
(0 0 0 0.00754885 -0.000400765 -2.75139e-05 27.2594 0.0601204 -0.019845)
(0 0 0 0.0058726 -0.000428141 -2.16535e-05 27.4316 0.0489545 -0.0201025)
(0 -4.82714e-20 4.82714e-20 0.00422309 -0.000447326 -1.57559e-05 27.5692 0.0364209 -0.0203132)
(0 0 0 0.00256576 -0.000458941 -8.99113e-06 27.6677 0.0226513 -0.0204687)
(0 0 0 0.000865242 -0.000465012 -2.59573e-06 27.7212 0.00774334 -0.0205214)
(1.60729e-18 -4.90507e-23 -1.22627e-23 1.3411 1.83633e-05 2.52096e-05 0.422181 -1.80023e-05 -2.7937e-05)
(0 0 0 1.11911 1.77917e-05 8.21821e-05 1.11911 8.21821e-05 1.77917e-05)
(1.13784e-17 0 3.47242e-22 1.05767 -0.000107124 0.00012829 1.83491 0.000144267 0.000137766)
(1.07036e-17 0 0 1.00624 -0.000274383 0.000159034 2.56584 0.000170022 0.000327844)
(-2.01377e-17 1.2291e-21 -1.2291e-21 0.957914 -0.000469558 0.00013534 3.30639 0.000152634 0.000548802)
(3.78867e-17 -4.62485e-21 0 0.909897 -0.000602962 3.68552e-05 4.05118 0.000102383 0.000699056)
(-1.78199e-17 4.35056e-21 -2.17528e-21 0.860708 -0.000558523 -0.000115657 4.79544 9.73066e-05 0.000664577)
(0 0 0 0.80987 -0.000270454 -0.000271706 5.53506 0.000289222 0.000386635)
(-3.15379e-17 0 4.8123e-22 0.757651 0.000239611 -0.000383242 6.26629 0.000858953 -0.00010551)
(0 0 0 0.704751 0.000881244 -0.000429444 6.98573 0.00195615 -0.000717215)
(-2.7908e-17 2.66152e-23 0 0.652102 0.0015418 -0.000416566 7.69047 0.00366439 -0.00133393)
(0 -1.28188e-20 0 0.600692 0.00212499 -0.000365122 8.37817 0.00599397 -0.00185845)
(0 0 0 0.551348 0.00256995 -0.000297559 9.04721 0.00889237 -0.00222949)
(0 0 -1.13434e-20 0.504697 0.00285361 -0.000231078 9.69647 0.0122636 -0.00242361)
(0 0 1.06707e-20 0.461168 0.0029827 -0.000175491 10.3256 0.0159895 -0.00244709)
(0 0 -1.00379e-20 0.420972 0.00298216 -0.0001343 10.9346 0.0199483 -0.00232411)
(3.86767e-17 7.55404e-20 -9.44255e-21 0.384123 0.00288446 -0.000106881 11.5238 0.0240284 -0.00208632)
(-3.63829e-17 0 8.88255e-21 0.350531 0.00272205 -9.05537e-05 12.0942 0.0281357 -0.00176525)
(0 1.33692e-19 -1.67115e-20 0.320021 0.00252301 -8.21015e-05 12.6464 0.0321974 -0.00138797)
(-6.43909e-17 -1.25763e-19 1.57204e-20 0.29234 0.0023091 -7.85792e-05 13.1812 0.0361616 -0.000975377)
(0 0 0 0.267233 0.00209559 -7.76765e-05 13.6995 0.0399951 -0.000542174)
(5.69798e-17 0 -1.39111e-20 0.244445 0.00189228 -7.77861e-05 14.2024 0.04368 -9.76039e-05)
(0 0 2.61722e-20 0.223723 0.00170443 -7.79084e-05 14.6903 0.0472091 0.000353199)
(1.00843e-16 3.9392e-19 0 0.204843 0.001534 -7.74779e-05 15.1641 0.0505833 0.000808139)
(-4.74314e-17 -1.85279e-19 0 0.187606 0.00138081 -7.62462e-05 15.6242 0.0538075 0.00126708)
(0 0 0 0.171823 0.00124339 -7.41926e-05 16.0711 0.0568882 0.00173105)
(0 0 0 0.157343 0.00111935 -7.1381e-05 16.505 0.0598302 0.00220158)
(0 0 0 0.144033 0.00100594 -6.79354e-05 16.9263 0.0626363 0.00268035)
(0 0 0 0.131764 0.000900464 -6.40088e-05 17.3349 0.0653039 0.00316889)
(1.39755e-16 0 -1.706e-20 0.12044 0.000800202 -5.97434e-05 17.7312 0.0678245 0.00366843)
(0 0 0 0.109966 0.000702796 -5.5268e-05 18.1148 0.0701822 0.00417974)
(-6.18351e-17 -2.41543e-19 0 0.100274 0.000606061 -5.06923e-05 18.4859 0.072353 0.00470324)
(-1.74504e-16 -4.54436e-19 2.84023e-20 0.0912585 0.000508098 -4.61123e-05 18.8443 0.0743035 0.00523873)
(0 -4.27486e-19 2.67179e-20 0.0828908 0.000407401 -4.16018e-05 19.1897 0.0759895 0.00578554)
(0 0 0 0.0751425 0.000302769 -3.72281e-05 19.5217 0.0773563 0.00634244)
(0 0 0 0.0678898 0.000193457 -3.30468e-05 19.8402 0.0783379 0.00690758)
(0 0 0 0.0611081 7.92461e-05 -2.91154e-05 20.1448 0.0788571 0.00747836)
(0 0 0 0.0548078 -3.943e-05 -2.54589e-05 20.4348 0.078827 0.00805135)
(0 0 0 0.0489311 -0.000161993 -2.20811e-05 20.7098 0.0781536 0.00862276)
(0 0 0 0.043425 -0.000287363 -1.90222e-05 20.9693 0.0767351 0.00918802)
(-1.42669e-16 -5.57301e-19 3.48313e-20 0.0382749 -0.000413638 -1.63064e-05 21.2126 0.0744669 0.00974148)
(-2.01312e-16 -5.2425e-19 3.27656e-20 0.0334393 -0.000538056 -1.39407e-05 21.4389 0.0712479 0.0102766)
(-1.26249e-16 -4.93159e-19 3.08224e-20 0.0289066 -0.000657379 -1.19141e-05 21.6475 0.0669896 0.0107858)
(0 0 0 0.0246443 -0.000767741 -1.01924e-05 21.8374 0.0616196 0.0112612)
(0 0 0 0.0206007 -0.000865532 -8.70927e-06 22.0077 0.0550991 0.011694)
(0 0 0 0.0167456 -0.000947146 -7.38034e-06 22.1568 0.0474159 0.0120756)
(0 0 0 0.0130161 -0.00101067 -6.07794e-06 22.2829 0.0386076 0.0123975)
(0 0 0 0.00934435 -0.00105533 -4.69513e-06 22.3838 0.0287264 0.0126521)
(8.74817e-17 0 0 0.0056793 -0.00108255 -2.02901e-06 22.4558 0.0178684 0.0128312)
(8.22935e-17 2.00912e-20 -4.01824e-20 0.00192092 -0.00109681 -3.89152e-08 22.4949 0.0061076 0.0129207)
(0 0 0 2.14648 6.02134e-05 -2.67413e-05 0.395128 -2.79744e-05 -9.59892e-05)
(-1.13784e-17 -3.47242e-22 -8.68105e-23 1.83491 0.000137766 0.000144267 1.05767 0.00012829 -0.000107124)
(2.14072e-17 0 0 1.75674 -8.97473e-06 0.000260954 1.75674 0.000260954 -8.97473e-06)
(0 0 0 1.68152 -0.000178569 0.000323086 2.48111 0.000388349 0.000155111)
(0 5.78106e-22 0 1.603 -0.000357661 0.000249272 3.22066 0.000544548 0.000321127)
(0 0 0 1.51995 -0.000436367 -2.78834e-06 3.9664 0.000787168 0.000357854)
(0 0 0 1.43299 -0.000265189 -0.000369705 4.71079 0.00121873 0.000115877)
(0 0 0 1.3433 0.000233043 -0.000722266 5.44802 0.00196886 -0.000460426)
(0 -1.81076e-21 -7.24304e-21 1.25221 0.00101208 -0.000949636 6.1738 0.00314918 -0.00129494)
(0 -3.40674e-21 0 1.16119 0.00193739 -0.00101142 6.88501 0.00481443 -0.00223385)
(0 0 0 1.07175 0.00285552 -0.000930775 7.57943 0.00696095 -0.00311515)
(-4.93919e-17 -2.41171e-20 2.41171e-20 0.985273 0.00364282 -0.000761884 8.25557 0.00954357 -0.0038133)
(0 4.53737e-20 0 0.902906 0.00422545 -0.0005609 8.91231 0.012493 -0.00425659)
(0 0 0 0.825486 0.00457911 -0.000369833 9.54925 0.0157291 -0.00442486)
(-8.22301e-17 -1.60606e-19 2.00757e-20 0.753538 0.00471732 -0.000212093 10.1663 0.0191701 -0.00433638)
(7.73534e-17 0 0 0.687227 0.00467637 -9.54459e-05 10.7637 0.0227383 -0.00403193)
(0 0 0 0.626624 0.00450181 -1.7552e-05 11.342 0.0263643 -0.00356083)
(-1.36901e-16 -2.67384e-19 3.3423e-20 0.571443 0.0042385 2.89366e-05 11.9018 0.0299898 -0.00297128)
(0 0 0 0.521287 0.00392535 5.26728e-05 12.4437 0.0335682 -0.00230472)
(0 0 0 0.475778 0.00359267 6.15212e-05 12.9687 0.0370645 -0.00159354)
(0 0 0 0.434538 0.003262 6.17143e-05 13.4774 0.040455 -0.000861107)
(1.07201e-16 0 -2.61722e-20 0.397145 0.00294714 5.76635e-05 13.9705 0.0437252 -0.000122812)
(0 0 0 0.363118 0.00265559 5.22204e-05 14.4486 0.0468679 0.000612178)
(0 0 0 0.332127 0.00239041 4.705e-05 14.9123 0.0498809 0.00133936)
(-8.92369e-17 -3.48582e-19 2.17864e-20 0.303831 0.00215137 4.29703e-05 15.362 0.0527661 0.00205726)
(0 -3.27909e-19 0 0.277934 0.00193612 4.02575e-05 15.798 0.0555254 0.0027664)
(-1.57932e-16 -6.16924e-19 0 0.254203 0.00174128 3.88743e-05 16.2206 0.0581606 0.00346838)
(0 0 0 0.232374 0.00156285 3.86186e-05 16.63 0.0606715 0.00416518)
(0 0 0 0.212296 0.00139664 3.92294e-05 17.0264 0.0630538 0.00485887)
(0 0 0 0.193786 0.00123864 4.04313e-05 17.4096 0.0652988 0.00555127)
(0 0 0 0.176646 0.00108513 4.19704e-05 17.7797 0.0673912 0.00624385)
(0 -4.54436e-19 0 0.160834 0.000932747 4.36316e-05 18.1368 0.0693082 0.0069376)
(0 0 0 0.146187 0.000778532 4.52294e-05 18.4803 0.0710191 0.007633)
(0 -4.02133e-19 1.25667e-20 0.132562 0.000620097 4.66169e-05 18.8104 0.0724836 0.00832998)
(-1.93682e-16 0 1.18214e-20 0.119917 0.000455547 4.76687e-05 19.1267 0.073652 0.00902785)
(-1.82195e-16 -7.11699e-19 0 0.108194 0.000283622 4.827e-05 19.429 0.0744635 0.00972525)
(0 0 0 0.0972626 0.000103939 4.83094e-05 19.717 0.0748472 0.0104199)
(0 0 0 0.0870627 -8.29198e-05 4.77554e-05 19.9903 0.0747229 0.0111085)
(0 0 0 0.0775884 -0.000276011 4.66065e-05 20.2485 0.0740032 0.0117871)
(1.42669e-16 5.57301e-19 0 0.0687558 -0.000473676 4.48003e-05 20.4911 0.0725937 0.0124515)
(1.34208e-16 5.2425e-19 0 0.0604886 -0.000672956 4.22847e-05 20.7176 0.0703969 0.0130959)
(0 -4.93159e-19 7.70561e-21 0.0527767 -0.000869493 3.9056e-05 20.9277 0.0673179 0.013713)
(1.18761e-16 0 0 0.0455584 -0.00105828 3.51573e-05 21.1206 0.0632726 0.0142946)
(0 0 0 0.0387787 -0.0012332 3.06733e-05 21.2957 0.0581916 0.0148319)
(0 8.21035e-19 0 0.0323825 -0.00138853 2.57569e-05 21.4522 0.0520346 0.0153152)
(0 0 0 0.0262915 -0.0015186 2.06009e-05 21.5889 0.0447869 0.0157357)
(0 0 0 0.0204247 -0.00162024 1.54714e-05 21.7043 0.0364771 0.016085)
(1.74963e-16 0 0 0.0146645 -0.00169213 1.05626e-05 21.7963 0.0271511 0.0163572)
(0 0 0 0.0089028 -0.00173634 6.38659e-06 21.8621 0.0168928 0.0165462)
(0 0 0 0.00300558 -0.00175943 2.30325e-06 21.8974 0.0057732 0.0166147)
(0 0 0 2.96023 0.000127095 -0.000207885 0.378216 -3.87756e-05 -0.000192568)
(-1.07036e-17 -1.95989e-21 6.53297e-22 2.56584 0.000327844 0.000170022 1.00624 0.000159034 -0.000274383)
(2.01377e-17 1.2291e-21 0 2.48111 0.000155111 0.000388349 1.68152 0.000323086 -0.000178569)
(0 0 0 2.38372 -6.09231e-06 0.000468948 2.38372 0.000468948 -6.09231e-06)
(0 0 0 2.27285 -0.000114982 0.000316827 3.09552 0.000631108 0.000127775)
(-3.35262e-17 -1.02314e-21 -4.09255e-21 2.15099 -3.9528e-05 -0.000129574 3.80545 0.000899022 9.183e-05)
(0 0 -1.92492e-21 2.02157 0.000369624 -0.000752346 4.50584 0.0014496 -0.000249198)
(0 0 0 1.88816 0.00115465 -0.00130929 5.19159 0.00245323 -0.000919495)
(5.5816e-17 0 -6.81348e-21 1.75391 0.00221425 -0.00161285 5.85966 0.00397566 -0.00179192)
(0 0 0 1.62144 0.00336774 -0.00161782 6.50853 0.00596944 -0.00267661)
(-9.87838e-17 -4.82343e-20 2.41171e-20 1.49289 0.00444177 -0.0013867 7.13768 0.00833121 -0.00340556)
(0 0 0 1.36986 0.00531416 -0.00102389 7.74718 0.0109523 -0.00386796)
(0 0 0 1.25361 0.00592279 -0.00062796 8.33717 0.0137425 -0.0040145)
(-8.22301e-17 -1.60606e-19 4.01514e-20 1.14502 0.00625714 -0.000268475 8.90848 0.0166353 -0.00384726)
(1.54707e-16 0 0 1.04454 0.00634297 1.81649e-05 9.4614 0.0195845 -0.00340333)
(-1.45532e-16 1.42121e-19 0 0.952273 0.00622642 0.000222221 9.99666 0.0225564 -0.00273885)
(0 2.67384e-19 -3.3423e-20 0.867874 0.00596074 0.000350768 10.515 0.0255254 -0.00191566)
(0 0 0 0.791039 0.00559712 0.000418824 11.0167 0.0284697 -0.000992306)
(0 0 0 0.721335 0.00517944 0.000443216 11.5027 0.0313707 -1.89038e-05)
(0 -4.45155e-19 0 0.658073 0.00474195 0.000439038 11.9734 0.0342121 0.000965207)
(0 0 2.61722e-20 0.600674 0.00430927 0.000418229 12.4295 0.0369808 0.00193127)
(1.00843e-16 7.8784e-19 -2.462e-20 0.548531 0.0038974 0.000389354 12.8712 0.0396661 0.00286011)
(-1.89726e-16 -3.70558e-19 2.31599e-20 0.501085 0.00351518 0.000358023 13.299 0.0422611 0.00374032)
(0 0 0 0.457892 0.00316617 0.000327596 13.7135 0.044761 0.00456641)
(0 0 0 0.418433 0.00285019 0.000299821 14.1147 0.047163 0.00533719)
(0 0 0 0.382288 0.00256446 0.00027539 14.5028 0.0494654 0.00605428)
(-1.48566e-16 -5.80336e-19 -1.13347e-21 0.349188 0.00230487 0.000254357 14.8783 0.0516659 0.00672113)
(1.39755e-16 5.45919e-19 0 0.318825 0.00206639 0.000236436 15.241 0.0537614 0.00734215)
(1.31467e-16 0 0 0.290838 0.00184385 0.000221185 15.5911 0.0557459 0.00792228)
(1.2367e-16 0 0 0.265021 0.00163212 0.000208116 15.9283 0.0576106 0.0084664)
(0 0 0 0.241243 0.00142633 0.000196761 16.253 0.0593417 0.00897936)
(0 0 0 0.21926 0.0012221 0.000186701 16.5649 0.0609192 0.00946563)
(0 0 0 0.198876 0.00101556 0.000177571 16.8639 0.0623162 0.00992933)
(1.93682e-16 1.51314e-18 2.36428e-20 0.180031 0.000803544 0.000169058 17.1498 0.0635005 0.0103741)
(0 0 0 0.162583 0.000583435 0.000160885 17.4227 0.0644296 0.010803)
(0 0 0 0.146383 0.000353519 0.000152792 17.6822 0.0650517 0.0112184)
(0 6.29787e-19 0 0.131319 0.000113169 0.000144517 17.9279 0.0653087 0.0116218)
(-1.51664e-16 -1.18487e-18 -7.40545e-20 0.117342 -0.000136935 0.000135924 18.1601 0.0651306 0.0120133)
(0 0 0 0.104359 -0.000395531 0.000127001 18.3782 0.0644433 0.0123928)
(0 0 0 0.0922649 -0.000660408 0.000117605 18.5822 0.0631672 0.0127595)
(0 0 0 0.0810435 -0.00092766 0.000107546 18.7715 0.0612191 0.0131112)
(0 -9.27823e-19 0 0.0705815 -0.00119154 9.67637e-05 18.9464 0.0585158 0.0134436)
(0 0 0 0.0608155 -0.0014453 8.52847e-05 19.106 0.0549861 0.0137518)
(0 0 0 0.0516947 -0.00168089 7.32141e-05 19.2505 0.0505664 0.0140297)
(-1.9772e-16 -1.15851e-18 -9.65429e-20 0.0431047 -0.00189056 6.07844e-05 19.3787 0.0452199 0.014271)
(1.85994e-16 3.63269e-19 -4.54087e-20 0.0349531 -0.00206667 4.83142e-05 19.4905 0.0389307 0.0144706)
(0 0 0 0.0271173 -0.00220488 3.62438e-05 19.5844 0.0317181 0.0146252)
(0 3.21459e-19 0 0.0194553 -0.00230323 2.48867e-05 19.6591 0.0236185 0.0147356)
(-1.54826e-16 -1.51197e-19 -7.55986e-20 0.0117991 -0.00236425 1.36258e-05 19.7124 0.0146986 0.0148046)
(0 -7.11152e-20 0 0.00397432 -0.00239591 3.92878e-06 19.741 0.00502225 0.0148113)
(5.35181e-18 0 -1.30659e-21 3.78698 0.000197528 -0.000590858 0.365083 -5.90731e-05 -0.000310474)
(-2.01377e-17 -1.2291e-21 1.2291e-21 3.30639 0.000548802 0.000152634 0.957914 0.00013534 -0.000469558)
(0 0 5.78106e-22 3.22066 0.000321127 0.000544548 1.603 0.000249272 -0.000357661)
(-3.56398e-17 -4.35056e-21 0 3.09552 0.000127775 0.000631108 2.27285 0.000316827 -0.000114982)
(3.35262e-17 4.09255e-21 4.09255e-21 2.9404 4.12249e-05 0.000345067 2.9404 0.000345067 4.12249e-05)
(0 7.69967e-21 0 2.76777 0.000277848 -0.000330386 3.58959 0.000342647 -9.72295e-05)
(0 0 0 2.58649 0.00101745 -0.00120533 4.21369 0.000509435 -0.000653485)
(-1.11632e-16 -2.72539e-20 6.81348e-21 2.40292 0.00220254 -0.00192639 4.81106 0.00113834 -0.00157855)
(0 -2.56376e-20 1.28188e-20 2.22169 0.00359709 -0.00224266 5.38241 0.00235587 -0.00266907)
(-9.87838e-17 -4.82343e-20 2.41171e-20 2.0461 0.00495241 -0.00212998 5.92943 0.00407516 -0.00370879)
(0 0 0 1.87844 0.00610055 -0.00170855 6.45451 0.00612575 -0.00455095)
(-1.74829e-16 0 0 1.72009 0.00695686 -0.00113663 6.95984 0.00835348 -0.00512218)
(8.22301e-17 1.60606e-19 -4.01514e-20 1.57211 0.00749799 -0.000550058 7.44755 0.0106537 -0.00540414)
(0 1.51081e-19 -3.77702e-20 1.4349 0.00774217 -3.88776e-05 7.91936 0.0129686 -0.00541637)
(0 0 0 1.30842 0.00773197 0.000353437 8.3764 0.0152752 -0.00520127)
(0 0 0 1.19259 0.00752114 0.000618954 8.81965 0.0175684 -0.00481266)
(-1.28782e-16 0 3.14409e-20 1.08693 0.00716529 0.000771542 9.24988 0.0198502 -0.00430675)
(0 0 0 0.990734 0.00671534 0.000835003 9.66772 0.0221221 -0.00373617)
(0 0 0 0.903302 0.00621459 0.000834982 10.0733 0.0243823 -0.0031461)
(0 -4.18754e-19 1.30861e-20 0.823914 0.0056969 0.00079429 10.4671 0.026625 -0.00257258)
(0 0 0 0.751761 0.00518673 0.000730987 10.8493 0.0288416 -0.00204211)
(0 0 0 0.686157 0.00470038 0.00065813 11.22 0.0310224 -0.00157238)
(-1.78474e-16 -6.97163e-19 -3.40412e-22 0.626488 0.00424721 0.000584351 11.5794 0.0331571 -0.00117335)
(-1.67889e-16 0 -5.12357e-21 0.572039 0.00383115 0.000514846 11.9276 0.0352367 -0.000848965)
(0 0 -9.63943e-21 0.522216 0.00345218 0.000452313 12.2645 0.037253 -0.000598405)
(0 0 1.81355e-20 0.476672 0.00310746 0.000397777 12.5903 0.0391983 -0.000417519)
(0 0 0 0.434928 0.00279263 0.000351229 12.905 0.0410676 -0.000299891)
(0 0 -3.20964e-20 0.39652 0.00250221 0.000312095 13.2083 0.0428514 -0.000237735)
(0 -1.93235e-18 0 0.361197 0.00223036 0.00027951 13.5005 0.0445433 -0.000222531)
(0 0 0 0.32867 0.0019714 0.000252516 13.7814 0.0461342 -0.00024552)
(0 8.54971e-19 0 0.29868 0.00171955 0.000230184 14.0508 0.0476104 -0.000298035)
(0 0 0 0.270995 0.00146944 0.000211648 14.3087 0.048955 -0.000371718)
(-1.93682e-16 0 0 0.245386 0.00121691 0.000196129 14.555 0.0501485 -0.00045877)
(-1.82195e-16 0 0 0.221711 0.000958087 0.000182941 14.7897 0.0511615 -0.000551979)
(0 0 0 0.199821 0.000689405 0.000171472 15.0123 0.0519623 -0.000644959)
(0 0 0 0.179522 0.000409032 0.000161139 15.223 0.0525105 -0.000732182)
(3.03327e-16 1.18487e-18 7.40545e-20 0.160731 0.000116002 0.000151344 15.4217 0.0527575 -0.000809394)
(0 0 0 0.143322 -0.000189171 0.00014173 15.6083 0.052652 -0.000874088)
(0 0 0 0.12719 -0.000504621 0.000132164 15.7825 0.0521298 -0.000924331)
(-2.52497e-16 -9.86318e-19 -6.16449e-20 0.112234 -0.000827721 0.000122297 15.9445 0.0511304 -0.000959357)
(-2.37523e-16 0 -5.79889e-20 0.0983651 -0.00115405 0.000111718 16.0941 0.0495855 -0.000980471)
(0 0 0 0.0855005 -0.00147646 0.00010023 16.2313 0.0474278 -0.000990955)
(-4.2037e-16 -8.21035e-19 -1.02629e-19 0.0735432 -0.00178691 8.77889e-05 16.356 0.0445978 -0.000995642)
(1.9772e-16 0 9.65429e-20 0.0623935 -0.00207569 7.45118e-05 16.4678 0.0410437 -0.00100053)
(0 0 0 0.0519362 -0.00233317 6.07442e-05 16.5669 0.0367341 -0.00101152)
(0 0 -8.54313e-20 0.042062 -0.00255014 4.69917e-05 16.6526 0.031652 -0.00103342)
(0 0 8.03647e-20 0.0325991 -0.00272108 3.3987e-05 16.7246 0.0258093 -0.00106767)
(0 0 0 0.0233705 -0.00284351 2.23093e-05 16.7815 0.019234 -0.00111051)
(0 0 0 0.0141607 -0.00292008 1.10393e-05 16.822 0.0119763 -0.00115361)
(0 0 0 0.00476918 -0.00295951 2.62471e-06 16.8438 0.00409205 -0.00117864)
(0 0 0 4.62703 0.000215295 -0.00120487 0.352324 -9.26967e-05 -0.000403158)
(-1.89434e-17 0 0 4.05118 0.000699056 0.000102383 0.909897 3.68552e-05 -0.000602962)
(3.56398e-17 4.35056e-21 0 3.9664 0.000357854 0.000787168 1.51995 -2.78834e-06 -0.000436367)
(3.35262e-17 4.09255e-21 1.02314e-21 3.80545 9.183e-05 0.000899022 2.15099 -0.000129574 -3.9528e-05)
(0 0 7.69967e-21 3.58959 -9.72295e-05 0.000342647 2.76777 -0.000330386 0.000277848)
(0 0 0 3.34838 9.49397e-05 -0.000778634 3.34838 -0.000778634 9.49397e-05)
(1.67448e-16 6.81348e-21 -5.11011e-21 3.10166 0.0010422 -0.00206565 3.88619 -0.00142185 -0.00083034)
(0 0 0 2.85993 0.00265861 -0.00299676 4.38339 -0.0018643 -0.0023577)
(0 0 0 2.62838 0.00448688 -0.00329508 4.84578 -0.00178158 -0.00410721)
(9.29253e-17 0 0 2.4098 0.00612463 -0.00302005 5.27925 -0.00114333 -0.00574977)
(1.74829e-16 8.53655e-20 -8.53655e-20 2.20553 0.00739136 -0.00238259 5.68966 -8.14024e-05 -0.00711873)
(1.6446e-16 8.03028e-20 0 2.01585 0.00825361 -0.0015964 6.08149 0.00125429 -0.00816835)
(1.54707e-16 0 0 1.84074 0.00874231 -0.000824158 6.45883 0.0027513 -0.00891332)
(-4.36595e-16 -5.68483e-19 1.42121e-19 1.67967 0.00891344 -0.000166376 6.82417 0.00434269 -0.00939352)
(1.36901e-16 2.67384e-19 -6.68461e-20 1.53204 0.00883013 0.000331958 7.17962 0.00599753 -0.00965681)
(0 0 0 1.39723 0.00855379 0.000666297 7.52659 0.00770662 -0.00975217)
(-2.42288e-16 0 5.91525e-20 1.27429 0.00814038 0.000856439 7.86579 0.00946929 -0.00972583)
(-2.27919e-16 0 0 1.16227 0.00763838 0.000933076 8.19745 0.0112855 -0.00961964)
(0 0 0 1.06039 0.00708794 0.00092872 8.52193 0.0131515 -0.00946947)
(0 0 0 0.96771 0.00652063 0.000872349 8.83902 0.0150586 -0.00930454)
(0 0 0 0.883289 0.00595987 0.000787151 9.1487 0.0169944 -0.00914729)
(1.78474e-16 0 0 0.806328 0.00542173 0.000690154 9.45076 0.0189434 -0.00901367)
(1.67889e-16 6.55817e-19 0 0.73614 0.00491596 0.000592812 9.74483 0.0208896 -0.00891362)
(-3.15865e-16 -6.16924e-19 0 0.671999 0.00444722 0.00050214 10.0307 0.0228172 -0.00885205)
(0 -5.80336e-19 0 0.613245 0.00401603 0.000421885 10.3082 0.0247114 -0.00882966)
(0 0 0 0.559414 0.00362071 0.000353509 10.5772 0.0265579 -0.00884395)
(0 0 0 0.509975 0.00325659 0.000297022 10.8373 0.0283453 -0.00889009)
(-2.4734e-16 0 -9.43528e-22 0.464557 0.00291829 0.000251587 11.0882 0.030064 -0.00896166)
(0 0 0 0.422763 0.00260091 0.000215934 11.3299 0.0317008 -0.00905134)
(0 -8.54971e-19 -1.33589e-20 0.384212 0.00229765 0.000188628 11.562 0.0332467 -0.00915134)
(0 0 0 0.348668 0.00200231 0.000168232 11.7846 0.0346882 -0.00925385)
(0 0 0 0.315871 0.00170988 0.00015339 11.9971 0.0360125 -0.00935138)
(0 0 0 0.285578 0.00141479 0.000142867 12.1995 0.0372008 -0.00943697)
(-3.4278e-16 -1.33898e-18 -2.09216e-20 0.257576 0.00111267 0.000135565 12.3917 0.0382326 -0.00950443)
(-3.22451e-16 -1.25957e-18 0 0.231709 0.000800332 0.000130494 12.5736 0.0390808 -0.00954855)
(0 1.18487e-18 0 0.207817 0.000474726 0.000126728 12.745 0.039717 -0.00956528)
(0 0 0 0.185695 0.000135197 0.000123338 12.9061 0.040104 -0.00955208)
(-5.36832e-16 -2.097e-18 -3.27656e-20 0.165248 -0.000218006 0.000119731 13.0564 0.0401995 -0.00950821)
(0 0 0 0.146354 -0.000583116 0.000115613 13.1962 0.0399581 -0.00943438)
(0 0 0 0.128882 -0.000956677 0.000110443 13.3253 0.0393289 -0.00933296)
(0 0 0 0.112746 -0.00133404 0.000103638 13.444 0.0382595 -0.00920854)
(-4.2037e-16 -1.64207e-18 0 0.0978093 -0.00170713 9.48966e-05 13.552 0.036699 -0.00906819)
(0 0 0 0.0839522 -0.00206662 8.41603e-05 13.6498 0.0345986 -0.00892084)
(0 0 0 0.0711051 -0.00240127 7.1641e-05 13.7369 0.0319175 -0.00877703)
(0 0 0 0.0591079 -0.00270031 5.78757e-05 13.8137 0.0286277 -0.0086473)
(0 0 0 0.0478023 -0.00295316 4.3706e-05 13.8798 0.0247171 -0.00854139)
(3.09652e-16 6.04789e-19 3.77993e-20 0.0370068 -0.00315314 3.03068e-05 13.935 0.02019 -0.00846513)
(2.91288e-16 2.84461e-19 0 0.0265005 -0.00329723 1.86533e-05 13.9785 0.0150689 -0.00841941)
(0 -2.6759e-19 0 0.0160487 -0.00338806 8.97999e-06 14.0093 0.00939371 -0.00839987)
(2.57762e-16 1.2586e-19 6.29302e-20 0.00539845 -0.00343459 2.31173e-06 14.0261 0.00321098 -0.00836775)
(0 0 0 5.47771 0.000112666 -0.00195252 0.338308 -0.000136646 -0.000411829)
(1.78199e-17 4.35056e-21 -8.70113e-21 4.79544 0.000664577 9.73066e-05 0.860708 -0.000115657 -0.000558523)
(0 0 0 4.71079 0.000115877 0.00121873 1.43299 -0.000369705 -0.000265189)
(0 0 0 4.50584 -0.000249198 0.0014496 2.02157 -0.000752346 0.000369624)
(0 0 0 4.21369 -0.000653485 0.000509435 2.58649 -0.00120533 0.00101745)
(-1.67448e-16 5.11011e-21 -6.81348e-21 3.88619 -0.00083034 -0.00142185 3.10166 -0.00206565 0.0010422)
(0 0 0 3.55953 -4.35342e-05 -0.00351315 3.55953 -0.00351315 -4.35342e-05)
(0 0 0 3.25099 0.00183077 -0.00484384 3.96521 -0.00517904 -0.002094)
(0 0 0 2.96605 0.00414548 -0.00509177 4.32835 -0.00656978 -0.00452435)
(0 0 0 2.70538 0.00624136 -0.00451314 4.65893 -0.00744885 -0.00680038)
(0 1.60606e-19 -1.60606e-19 2.46782 0.00783461 -0.00351121 4.96562 -0.00779395 -0.00865304)
(1.54707e-16 7.55404e-20 -7.55404e-20 2.25154 0.00889633 -0.00239702 5.25515 -0.0076721 -0.0100263)
(0 0 0 2.05479 0.00949419 -0.001362 5.53286 -0.00717315 -0.0109687)
(0 0 0 1.87556 0.00972037 -0.000505295 5.8024 -0.00637778 -0.0115603)
(-1.28782e-16 0 0 1.71241 0.00966327 0.000138345 6.06654 -0.00534591 -0.0118793)
(0 0 0 1.56388 0.00939829 0.000575256 6.32683 -0.00411842 -0.0119922)
(0 0 0 1.42845 0.00898731 0.000834682 6.58439 -0.00272283 -0.0119529)
(-2.14402e-16 -1.25626e-18 1.04689e-19 1.30501 0.00848016 0.000955127 6.83954 -0.00118094 -0.0118039)
(0 0 0 1.19242 0.00791689 0.000975672 7.09229 0.000487313 -0.0115795)
(0 0 0 1.08965 0.00732884 0.00093068 7.34229 0.00226102 -0.0113065)
(0 -6.97163e-19 0 0.995779 0.00673948 0.000847667 7.58924 0.00411811 -0.0110057)
(0 0 0 0.909879 0.00616568 0.000747134 7.83255 0.00603491 -0.0106929)
(-3.15865e-16 0 0 0.83125 0.00561854 0.000643209 8.0718 0.00798783 -0.0103791)
(0 0 0 0.759185 0.00510429 0.000544873 8.30611 0.00995406 -0.0100716)
(0 0 6.82399e-20 0.693004 0.0046248 0.000457208 8.53536 0.0119119 -0.00977461)
(0 1.02709e-18 -3.20964e-20 0.632212 0.00417928 0.000382512 8.75878 0.0138434 -0.00948926)
(0 0 0 0.576263 0.00376562 0.000321242 8.97594 0.0157289 -0.00921497)
(0 0 0 0.524694 0.00337841 0.000272723 9.18639 0.0175564 -0.0089493)
(0 0 0 0.47716 0.00301232 0.000235644 9.38956 0.0193093 -0.00868871)
(0 -8.04266e-19 2.51333e-20 0.433361 0.00266205 0.0002084 9.58514 0.0209753 -0.00842889)
(3.87363e-16 1.51314e-18 0 0.39293 0.00232127 0.000189305 9.77292 0.0225423 -0.00816512)
(0 0 0 0.355551 0.00198391 0.000176707 9.95232 0.0239958 -0.00789266)
(3.4278e-16 0 0 0.321043 0.00164488 0.000169079 10.1232 0.0253211 -0.00760694)
(-3.22451e-16 0 1.96808e-20 0.289185 0.0012995 0.000165017 10.2854 0.0265019 -0.00730395)
(-3.03327e-16 0 0 0.259757 0.000943579 0.000163248 10.4387 0.0275177 -0.00698043)
(0 0 0 0.232574 0.000574755 0.000162575 10.5827 0.0283442 -0.00663423)
(-5.36832e-16 -2.097e-18 8.19141e-21 0.207473 0.000190981 0.000161812 10.7175 0.0289568 -0.0062645)
(0 0 0 0.184295 -0.000207129 0.000160147 10.8431 0.0293195 -0.0058722)
(0 9.27823e-19 -1.81215e-21 0.162918 -0.000617481 0.000157132 10.9593 0.0294013 -0.0054602)
(0 0 0 0.14319 -0.00103704 0.000152096 11.0663 0.0291597 -0.00503287)
(0 0 0 0.125021 -0.00146012 0.000144308 11.164 0.0285566 -0.00459686)
(3.9544e-16 0 0 0.108269 -0.00187807 0.000133393 11.2526 0.0275541 -0.00416161)
(0 1.45308e-18 1.13522e-20 0.0927804 -0.00228098 0.000119305 11.3322 0.0261132 -0.00373856)
(0 0 -2.13578e-20 0.0784366 -0.00265661 0.000102377 11.4031 0.0242003 -0.003341)
(0 0 0 0.0650983 -0.00299264 8.33927e-05 11.465 0.0217936 -0.00298249)
(0 0 3.77993e-20 0.0525768 -0.00327752 6.35684e-05 11.518 0.0188824 -0.00267579)
(2.91288e-16 5.68921e-19 0 0.0406488 -0.00350385 4.45573e-05 11.5619 0.0154702 -0.00243015)
(0 0 0 0.0290836 -0.00366781 2.77667e-05 11.5966 0.0115745 -0.00225)
(0 0 -3.14651e-20 0.0176167 -0.00377202 1.49856e-05 11.6211 0.00722898 -0.00213493)
(0 0 0 0.00593664 -0.00382534 4.9621e-06 11.6343 0.00247325 -0.00205475)
(0 0 0 6.33453 -0.000154777 -0.00259557 0.322519 -0.000182152 -0.000301173)
(1.67631e-17 1.02314e-21 0 5.53506 0.000386635 0.000289222 0.80987 -0.000271706 -0.000270454)
(0 0 0 5.44802 -0.000460426 0.00196886 1.3433 -0.000722266 0.000233043)
(0 0 0 5.19159 -0.000919495 0.00245323 1.88816 -0.00130929 0.00115465)
(1.11632e-16 -6.81348e-21 2.72539e-20 4.81106 -0.00157855 0.00113834 2.40292 -0.00192639 0.00220254)