/*--------------------------------*- C++ -*----------------------------------*\
| =========                 |                                                 |
| \\      /  F ield         | OpenFOAM: The Open Source CFD Toolbox           |
|  \\    /   O peration     | Version:  v1912                                 |
|   \\  /    A nd           | Website:  www.openfoam.com                      |
|    \\/     M anipulation  |                                                 |
\*---------------------------------------------------------------------------*/
FoamFile
{
    version     2.0;
    format      ascii;
    class       volScalarField;
    location    "3000";
    object      k;
}
// * * * * * * * * * * * * * * * * * * * * * * * * * * * * * * * * * * * * * //

dimensions      [0 2 -2 0 0 0 0];


internalField   nonuniform List<scalar> 
2500
(
0.00124952
0.00133508
0.00153412
0.00184406
0.00225038
0.00273452
0.00327801
0.00386443
0.00447999
0.00511348
0.00575597
0.00640047
0.00704168
0.00767574
0.00830003
0.0089129
0.00951347
0.0101014
0.0106769
0.01124
0.0117914
0.0123313
0.0128603
0.0133787
0.0138867
0.0143846
0.0148724
0.0153502
0.0158178
0.0162751
0.0167218
0.0171576
0.017582
0.0179944
0.0183944
0.0187811
0.0191538
0.0195116
0.0198535
0.0201785
0.0204854
0.0207729
0.0210396
0.0212838
0.0215039
0.0216975
0.021862
0.0219938
0.0220882
0.0221394
0.00133508
0.00120705
0.0012321
0.00136898
0.00159026
0.00187421
0.00220312
0.00256279
0.00294209
0.00333244
0.00372735
0.004122
0.00451293
0.00489779
0.00527509
0.00564404
0.00600436
0.00635607
0.00669947
0.00703493
0.00736289
0.00768378
0.007998
0.00830589
0.00860772
0.0089037
0.00919397
0.00947859
0.00975757
0.0100309
0.0102983
0.0105598
0.010815
0.0110637
0.0113055
0.0115399
0.0117664
0.0119845
0.0121936
0.0123929
0.0125816
0.0127589
0.0129238
0.0130752
0.0132119
0.0133324
0.0134349
0.0135171
0.0135761
0.0136081
0.00153412
0.0012321
0.0011332
0.00117103
0.00130448
0.00150598
0.00175567
0.00203867
0.00234367
0.00266202
0.00298714
0.00331421
0.00363973
0.00396137
0.00427768
0.00458787
0.00489166
0.0051891
0.00548045
0.00576608
0.00604639
0.00632179
0.00659265
0.00685928
0.00712194
0.0073808
0.007636
0.0078876
0.00813558
0.00837989
0.00862038
0.00885686
0.00908908
0.0093167
0.00953932
0.00975646
0.00996755
0.010172
0.010369
0.0105579
0.0107377
0.0109075
0.0110661
0.0112124
0.0113449
0.0114621
0.011562
0.0116424
0.0117001
0.0117315
0.00184406
0.00136898
0.00117103
0.00115418
0.00125982
0.00145067
0.00170159
0.00199457
0.00231606
0.00265571
0.00300561
0.00335984
0.00371414
0.0040656
0.00441239
0.0047535
0.00508852
0.00541745
0.00574051
0.00605809
0.00637062
0.00667854
0.00698223
0.00728202
0.00757819
0.00787094
0.00816038
0.00844657
0.00872948
0.009009
0.00928498
0.00955715
0.00982519
0.0100887
0.0103471
0.0105998
0.0108462
0.0110854
0.0113166
0.0115387
0.0117506
0.0119511
0.0121388
0.0123121
0.0124694
0.0126086
0.0127275
0.0128232
0.0128919
0.0129292
0.00225038
0.00159026
0.00130448
0.00125982
0.0013756
0.00160053
0.00190066
0.00225233
0.00263825
0.00304546
0.00346427
0.00388753
0.00431018
0.00472883
0.00514138
0.00554671
0.0059444
0.0063345
0.00671734
0.00709341
0.00746323
0.00782734
0.00818623
0.00854032
0.00888993
0.00923533
0.00957667
0.00991402
0.0102474
0.0105767
0.0109016
0.0112221
0.0115376
0.0118476
0.0121517
0.0124491
0.0127389
0.0130202
0.0132921
0.0135533
0.0138024
0.0140381
0.0142587
0.0144624
0.0146472
0.0148109
0.0149505
0.0150628
0.0151436
0.0151874
0.00273452
0.00187421
0.00150598
0.00145067
0.00160053
0.00188592
0.00226065
0.00269334
0.00316209
0.0036513
0.00414984
0.00464989
0.00514614
0.00563518
0.00611507
0.00658488
0.0070444
0.0074939
0.00793394
0.00836518
0.00878836
0.00920415
0.00961319
0.010016
0.0104131
0.0108047
0.0111911
0.0115724
0.0119488
0.01232
0.0126859
0.0130464
0.0134009
0.0137489
0.01409
0.0144232
0.0147477
0.0150626
0.0153666
0.0156584
0.0159367
0.0161998
0.016446
0.0166732
0.0168792
0.0170615
0.0172171
0.0173422
0.017432
0.0174808
0.00327801
0.00220312
0.00175567
0.00170159
0.00190066
0.00226065
0.00272023
0.00323915
0.00379093
0.00435801
0.00492876
0.00549555
0.00605359
0.00660006
0.00713358
0.00765371
0.00816068
0.00865511
0.00913782
0.00960976
0.0100718
0.0105249
0.0109699
0.0114072
0.0118376
0.0122615
0.0126792
0.0130909
0.0134967
0.0138965
0.0142904
0.0146779
0.0150588
0.0154326
0.0157985
0.016156
0.0165039
0.0168413
0.0171669
0.0174795
0.0177774
0.018059
0.0183224
0.0185655
0.0187858
0.0189808
0.0191471
0.0192807
0.0193768
0.0194288
0.00386443
0.00256279
0.00203867
0.00199457
0.00225233
0.00269334
0.00323915
0.00384031
0.00446655
0.00509951
0.00572813
0.00634584
0.00694901
0.00753587
0.00810589
0.00865934
0.00919699
0.00971987
0.0102292
0.010726
0.0112116
0.011687
0.012153
0.0126106
0.0130603
0.0135028
0.0139384
0.0143674
0.01479
0.0152062
0.015616
0.0160192
0.0164154
0.0168041
0.0171847
0.0175564
0.0179184
0.0182694
0.0186083
0.0189336
0.0192437
0.019537
0.0198113
0.0200644
0.020294
0.0204971
0.0206703
0.0208094
0.0209094
0.0209637
0.00447999
0.00294209
0.00234367
0.00231606
0.00263825
0.00316209
0.00379093
0.00446655
0.00515609
0.00584159
0.00651349
0.00716701
0.00780006
0.00841213
0.00900372
0.00957585
0.0101299
0.0106673
0.0111895
0.011698
0.0121942
0.0126792
0.0131542
0.0136199
0.0140774
0.0145271
0.0149696
0.0154053
0.0158344
0.016257
0.0166732
0.0170827
0.0174854
0.0178807
0.018268
0.0186465
0.0190153
0.0193733
0.0197192
0.0200515
0.0203685
0.0206684
0.0209492
0.0212085
0.0214437
0.0216518
0.0218293
0.021972
0.0220745
0.0221301
0.00511348
0.00333244
0.00266202
0.00265571
0.00304546
0.0036513
0.00435801
0.00509951
0.00584159
0.0065678
0.00727085
0.00794807
0.00859916
0.00922498
0.00982702
0.010407
0.0109669
0.0115084
0.0120335
0.0125438
0.0130408
0.013526
0.0140004
0.0144652
0.0149213
0.0153694
0.0158102
0.0162441
0.0166715
0.0170926
0.0175075
0.0179161
0.0183182
0.0187134
0.019101
0.0194804
0.0198506
0.0202104
0.0205585
0.0208934
0.0212134
0.0215165
0.0218005
0.022063
0.0223013
0.0225124
0.0226925
0.0228372
0.0229412
0.0229977
0.00575597
0.00372735
0.00298714
0.00300561
0.00346427
0.00414984
0.00492876
0.00572813
0.00651349
0.00727085
0.00799569
0.00868774
0.00934846
0.00998005
0.0105849
0.0111655
0.0117241
0.0122629
0.012784
0.0132893
0.0137804
0.0142589
0.0147261
0.0151832
0.0156312
0.016071
0.0165034
0.016929
0.0173482
0.0177614
0.0181687
0.0185703
0.018966
0.0193555
0.0197383
0.0201136
0.0204805
0.0208378
0.0211843
0.0215182
0.0218379
0.0221413
0.022426
0.0226896
0.0229292
0.0231415
0.0233229
0.0234687
0.0235736
0.0236304
0.00640047
0.004122
0.00331421
0.00335984
0.00388753
0.00464989
0.00549555
0.00634584
0.00716701
0.00794807
0.00868774
0.00938822
0.0100528
0.0106849
0.0112877
0.0118642
0.0124171
0.0129489
0.0134618
0.0139577
0.0144386
0.0149061
0.0153615
0.0158062
0.0162414
0.0166681
0.0170871
0.0174993
0.0179052
0.0183053
0.0187
0.0190895
0.0194738
0.0198528
0.020226
0.0205928
0.0209522
0.0213033
0.0216445
0.0219744
0.0222909
0.0225921
0.0228753
0.0231381
0.0233773
0.0235897
0.0237712
0.0239173
0.0240224
0.0240794
0.00704168
0.00451293
0.00363973
0.00371414
0.00431018
0.00514614
0.00605359
0.00694901
0.00780006
0.00859916
0.00934846
0.0100528
0.0107172
0.0113463
0.0119439
0.0125136
0.0130583
0.0135805
0.0140827
0.014567
0.0150351
0.0154889
0.0159298
0.0163593
0.0167785
0.0171888
0.0175909
0.0179859
0.0183746
0.0187576
0.0191355
0.0195087
0.0198773
0.0202414
0.0206008
0.020955
0.0213032
0.0216443
0.0219769
0.0222996
0.0226103
0.0229067
0.0231864
0.0234466
0.023684
0.023895
0.0240758
0.0242214
0.0243262
0.0243831
0.00767574
0.00489779
0.00396137
0.0040656
0.00472883
0.00563518
0.00660006
0.00753587
0.00841213
0.00922498
0.00998005
0.0106849
0.0113463
0.0119699
0.0125605
0.0131216
0.0136566
0.014168
0.0146584
0.0151297
0.0155839
0.0160227
0.0164477
0.0168602
0.0172618
0.0176535
0.0180365
0.0184118
0.0187805
0.0191434
0.0195012
0.0198545
0.0202038
0.0205494
0.0208912
0.0212289
0.021562
0.0218896
0.0222103
0.0225227
0.0228247
0.023114
0.023388
0.0236436
0.0238776
0.0240862
0.0242652
0.0244096
0.0245136
0.0245701
0.00830003
0.00527509
0.00427768
0.00441239
0.00514138
0.00611507
0.00713358
0.00810589
0.00900372
0.00982702
0.0105849
0.0112877
0.0119439
0.0125605
0.0131425
0.013694
0.0142185
0.0147185
0.0151965
0.0156545
0.0160944
0.0165178
0.0169263
0.0173214
0.0177044
0.0180765
0.0184391
0.0187933
0.0191402
0.0194808
0.0198161
0.0201468
0.0204739
0.0207976
0.0211184
0.0214363
0.0217508
0.0220614
0.0223668
0.0226657
0.022956
0.0232356
0.0235015
0.0237507
0.0239797
0.0241844
0.0243605
0.0245029
0.0246056
0.0246615
0.0089129
0.00564404
0.00458787
0.0047535
0.00554671
0.00658488
0.00765371
0.00865934
0.00957585
0.010407
0.0111655
0.0118642
0.0125136
0.0131216
0.013694
0.0142353
0.0147487
0.015237
0.0157026
0.0161473
0.0165729
0.0169811
0.0173732
0.0177508
0.0181152
0.0184675
0.0188093
0.0191415
0.0194656
0.0197827
0.0200938
0.0204001
0.0207026
0.021002
0.0212989
0.0215937
0.0218864
0.0221766
0.0224634
0.0227455
0.0230212
0.0232881
0.0235435
0.0237841
0.0240062
0.0242056
0.0243777
0.0245172
0.024618
0.0246729
0.00951347
0.00600436
0.00489166
0.00508852
0.0059444
0.0070444
0.00816068
0.00919699
0.0101299
0.0109669
0.0117241
0.0124171
0.0130583
0.0136566
0.0142185
0.0147487
0.0152507
0.0157272
0.0161803
0.016612
0.0170237
0.017417
0.0177932
0.0181537
0.0184998
0.0188327
0.0191537
0.019464
0.019765
0.0200579
0.020344
0.0206246
0.0209009
0.0211739
0.0214446
0.0217138
0.0219817
0.0222483
0.0225132
0.0227754
0.0230332
0.0232846
0.0235267
0.0237563
0.0239694
0.0241618
0.0243285
0.0244642
0.0245624
0.024616
0.0101014
0.00635607
0.0051891
0.00541745
0.0063345
0.0074939
0.00865511
0.00971987
0.0106673
0.0115084
0.0122629
0.0129489
0.0135805
0.014168
0.0147185
0.015237
0.0157272
0.0161916
0.0166323
0.0170511
0.0174493
0.0178283
0.0181893
0.0185334
0.0188618
0.0191758
0.0194766
0.0197653
0.0200434
0.0203121
0.0205729
0.0208272
0.0210763
0.0213217
0.0215645
0.0218058
0.0220464
0.0222868
0.0225267
0.0227657
0.0230026
0.0232353
0.0234612
0.0236771
0.023879
0.0240624
0.0242222
0.0243528
0.0244477
0.0244995
0.0106769
0.00669947
0.00548045
0.00574051
0.00671734
0.00793394
0.00913782
0.0102292
0.0111895
0.0120335
0.012784
0.0134618
0.0140827
0.0146584
0.0151965
0.0157026
0.0161803
0.0166323
0.0170606
0.0174666
0.0178516
0.0182168
0.0185631
0.0188916
0.0192032
0.0194991
0.0197804
0.0200483
0.0203041
0.020549
0.0207847
0.0210125
0.0212341
0.021451
0.0216647
0.0218767
0.022088
0.0222996
0.0225119
0.0227248
0.0229374
0.0231482
0.0233549
0.0235543
0.0237424
0.0239146
0.0240658
0.02419
0.0242806
0.0243302
0.01124
0.00703493
0.00576608
0.00605809
0.00709341
0.00836518
0.00960976
0.010726
0.011698
0.0125438
0.0132893
0.0139577
0.014567
0.0151297
0.0156545
0.0161473
0.016612
0.0170511
0.0174666
0.0178598
0.0182319
0.0185836
0.0189158
0.0192293
0.0195249
0.0198036
0.0200664
0.0203143
0.0205485
0.0207705
0.0209815
0.0211833
0.0213774
0.0215656
0.0217496
0.0219311
0.0221117
0.0222927
0.0224749
0.0226589
0.0228444
0.0230302
0.0232145
0.0233942
0.0235658
0.0237245
0.0238649
0.0239811
0.0240664
0.0241133
0.0117914
0.00736289
0.00604639
0.00637062
0.00746323
0.00878836
0.0100718
0.0112116
0.0121942
0.0130408
0.0137804
0.0144386
0.0150351
0.0155839
0.0160944
0.0165729
0.0170237
0.0174493
0.0178516
0.0182319
0.0185909
0.0189293
0.0192478
0.0195469
0.0198273
0.0200897
0.0203348
0.0205637
0.0207774
0.0209772
0.0211645
0.0213409
0.0215079
0.0216676
0.0218217
0.0219722
0.0221211
0.02227
0.0224204
0.0225732
0.0227287
0.0228865
0.0230452
0.0232023
0.0233543
0.0234967
0.0236242
0.0237307
0.0238094
0.0238528
0.0123313
0.00768378
0.00632179
0.00667854
0.00782734
0.00920415
0.0105249
0.011687
0.0126792
0.013526
0.0142589
0.0149061
0.0154889
0.0160227
0.0165178
0.0169811
0.017417
0.0178283
0.0182168
0.0185836
0.0189293
0.0192545
0.0195595
0.0198446
0.0201104
0.0203571
0.0205856
0.0207964
0.0209906
0.0211693
0.0213338
0.0214856
0.0216263
0.0217579
0.0218824
0.0220019
0.0221186
0.0222345
0.0223515
0.0224712
0.0225944
0.0227215
0.0228516
0.0229828
0.0231121
0.0232354
0.0233474
0.0234421
0.0235128
0.023552
0.0128603
0.007998
0.00659265
0.00698223
0.00818623
0.00961319
0.0109699
0.012153
0.0131542
0.0140004
0.0147261
0.0153615
0.0159298
0.0164477
0.0169263
0.0173732
0.0177932
0.0181893
0.0185631
0.0189158
0.0192478
0.0195595
0.019851
0.0201224
0.0203738
0.0206056
0.020818
0.0210117
0.0211874
0.021346
0.0214887
0.021617
0.0217323
0.0218367
0.0219321
0.0220209
0.0221053
0.0221877
0.0222705
0.0223556
0.0224446
0.0225384
0.022637
0.0227393
0.0228428
0.0229439
0.0230378
0.0231185
0.0231795
0.0232136
0.0133787
0.00830589
0.00685928
0.00728202
0.00854032
0.010016
0.0114072
0.0126106
0.0136199
0.0144652
0.0151832
0.0158062
0.0163593
0.0168602
0.0173214
0.0177508
0.0181537
0.0185334
0.0188916
0.0192293
0.0195469
0.0198446
0.0201224
0.0203799
0.0206173
0.0208345
0.0210315
0.0212088
0.0213669
0.0215064
0.0216284
0.0217342
0.0218252
0.0219033
0.0219704
0.022029
0.0220814
0.0221303
0.0221783
0.0222279
0.0222812
0.0223398
0.0224044
0.0224749
0.0225495
0.0226253
0.0226981
0.0227624
0.0228119
0.02284
0.0138867
0.00860772
0.00712194
0.00757819
0.00888993
0.0104131
0.0118376
0.0130603
0.0140774
0.0149213
0.0156312
0.0162414
0.0167785
0.0172618
0.0177044
0.0181152
0.0184998
0.0188618
0.0192032
0.0195249
0.0198273
0.0201104
0.0203738
0.0206173
0.0208405
0.0210433
0.0212253
0.0213868
0.0215279
0.0216493
0.0217516
0.0218359
0.0219037
0.0219565
0.0219964
0.0220256
0.0220466
0.0220623
0.0220755
0.0220889
0.0221054
0.0221272
0.0221558
0.0221917
0.0222345
0.022282
0.0223308
0.0223761
0.0224122
0.0224331
0.0143846
0.0089037
0.0073808
0.00787094
0.00923533
0.0108047
0.0122615
0.0135028
0.0145271
0.0153694
0.016071
0.0166681
0.0171888
0.0176535
0.0180765
0.0184675
0.0188327
0.0191758
0.0194991
0.0198036
0.0200897
0.0203571
0.0206056
0.0208345
0.0210433
0.0212314
0.0213986
0.0215446
0.0216694
0.0217733
0.0218568
0.0219207
0.0219662
0.0219949
0.0220085
0.0220093
0.0219998
0.0219828
0.0219614
0.0219387
0.0219178
0.0219016
0.0218923
0.0218916
0.0218999
0.0219161
0.0219379
0.0219615
0.0219822
0.0219948
0.0148724
0.00919397
0.007636
0.00816038
0.00957667
0.0111911
0.0126792
0.0139384
0.0149696
0.0158102
0.0165034
0.0170871
0.0175909
0.0180365
0.0184391
0.0188093
0.0191537
0.0194766
0.0197804
0.0200664
0.0203348
0.0205856
0.020818
0.0210315
0.0212253
0.0213986
0.0215508
0.0216814
0.0217902
0.0218772
0.0219425
0.0219869
0.0220112
0.0220167
0.0220052
0.0219786
0.0219395
0.0218907
0.0218353
0.0217765
0.021718
0.0216631
0.0216149
0.0215756
0.021547
0.0215292
0.0215213
0.0215205
0.0215236
0.0215267
0.0153502
0.00947859
0.0078876
0.00844657
0.00991402
0.0115724
0.0130909
0.0143674
0.0154053
0.0162441
0.016929
0.0174993
0.0179859
0.0184118
0.0187933
0.0191415
0.019464
0.0197653
0.0200483
0.0203143
0.0205637
0.0207964
0.0210117
0.0212088
0.0213868
0.0215446
0.0216814
0.0217966
0.0218894
0.0219597
0.0220074
0.0220329
0.0220368
0.0220202
0.0219845
0.0219317
0.021864
0.0217843
0.0216955
0.0216013
0.0215054
0.0214115
0.0213233
0.0212442
0.0211768
0.0211227
0.0210823
0.0210548
0.0210382
0.0210305
0.0158178
0.00975757
0.00813558
0.00872948
0.0102474
0.0119488
0.0134967
0.01479
0.0158344
0.0166715
0.0173482
0.0179052
0.0183746
0.0187805
0.0191402
0.0194656
0.019765
0.0200434
0.0203041
0.0205485
0.0207774
0.0209906
0.0211874
0.0213669
0.0215279
0.0216694
0.0217902
0.0218894
0.0219661
0.0220198
0.0220501
0.0220572
0.0220414
0.0220034
0.0219445
0.0218664
0.0217712
0.0216616
0.0215404
0.0214115
0.0212785
0.0211457
0.0210173
0.0208974
0.0207898
0.0206974
0.0206223
0.0205656
0.0205274
0.0205077
0.0162751
0.0100309
0.00837989
0.009009
0.0105767
0.01232
0.0138965
0.0152062
0.016257
0.0170926
0.0177614
0.0183053
0.0187576
0.0191434
0.0194808
0.0197827
0.0200579
0.0203121
0.020549
0.0207705
0.0209772
0.0211693
0.021346
0.0215064
0.0216493
0.0217733
0.0218772
0.0219597
0.0220198
0.0220566
0.0220696
0.0220585
0.0220233
0.0219646
0.0218834
0.0217809
0.0216591
0.0215205
0.021368
0.0212051
0.0210357
0.0208644
0.0206958
0.0205346
0.0203857
0.0202536
0.020142
0.0200541
0.0199925
0.0199598
0.0167218
0.0102983
0.00862038
0.00928498
0.0109016
0.0126859
0.0142904
0.015616
0.0166732
0.0175075
0.0181687
0.0187
0.0191355
0.0195012
0.0198161
0.0200938
0.020344
0.0205729
0.0207847
0.0209815
0.0211645
0.0213338
0.0214887
0.0216284
0.0217516
0.0218568
0.0219425
0.0220074
0.0220501
0.0220696
0.0220649
0.0220356
0.0219813
0.0219023
0.0217991
0.021673
0.0215256
0.021359
0.021176
0.0209801
0.0207752
0.0205659
0.0203573
0.0201549
0.0199642
0.0197913
0.0196418
0.0195212
0.0194347
0.0193881
0.0171576
0.0105598
0.00885686
0.00955715
0.0112221
0.0130464
0.0146779
0.0160192
0.0170827
0.0179161
0.0185703
0.0190895
0.0195087
0.0198545
0.0201468
0.0204001
0.0206246
0.0208272
0.0210125
0.0211833
0.0213409
0.0214856
0.021617
0.0217342
0.0218359
0.0219207
0.0219869
0.0220329
0.0220572
0.0220585
0.0220356
0.0219876
0.0219141
0.0218148
0.0216902
0.021541
0.0213685
0.0211748
0.0209623
0.0207343
0.0204947
0.0202483
0.0200003
0.0197568
0.0195244
0.0193102
0.019122
0.0189675
0.0188552
0.018794
0.017582
0.010815
0.00908908
0.00982519
0.0115376
0.0134009
0.0150588
0.0164154
0.0174854
0.0183182
0.018966
0.0194738
0.0198773
0.0202038
0.0204739
0.0207026
0.0209009
0.0210763
0.0212341
0.0213774
0.0215079
0.0216263
0.0217323
0.0218252
0.0219037
0.0219662
0.0220112
0.0220368
0.0220414
0.0220233
0.0219813
0.0219141
0.0218209
0.0217012
0.0215552
0.0213831
0.0211862
0.0209659
0.0207246
0.0204654
0.0201921
0.0199093
0.0196227
0.0193388
0.0190649
0.0188096
0.0185824
0.0183936
0.0182549
0.0181786
0.0179944
0.0110637
0.0093167
0.0100887
0.0118476
0.0137489
0.0154326
0.0168041
0.0178807
0.0187134
0.0193555
0.0198528
0.0202414
0.0205494
0.0207976
0.021002
0.0211739
0.0213217
0.021451
0.0215656
0.0216676
0.0217579
0.0218367
0.0219033
0.0219565
0.0219949
0.0220167
0.0220202
0.0220034
0.0219646
0.0219023
0.0218148
0.0217012
0.0215607
0.021393
0.0211981
0.0209769
0.0207305
0.0204611
0.0201714
0.0198652
0.019547
0.0192227
0.0188991
0.0185845
0.0182886
0.0180227
0.0177999
0.0176347
0.0175434
0.0183944
0.0113055
0.00953932
0.0103471
0.0121517
0.01409
0.0157985
0.0171847
0.018268
0.019101
0.0197383
0.020226
0.0206008
0.0208912
0.0211184
0.0212989
0.0214446
0.0215645
0.0216647
0.0217496
0.0218217
0.0218824
0.0219321
0.0219704
0.0219964
0.0220085
0.0220052
0.0219845
0.0219445
0.0218834
0.0217991
0.0216902
0.0215552
0.021393
0.021203
0.020985
0.0207394
0.0204672
0.02017
0.0198504
0.019512
0.0191593
0.0187982
0.0184361
0.0180818
0.0177463
0.0174428
0.0171868
0.0169959
0.0168899
0.0187811
0.0115399
0.00975646
0.0105998
0.0124491
0.0144232
0.016156
0.0175564
0.0186465
0.0194804
0.0201136
0.0205928
0.020955
0.0212289
0.0214363
0.0215937
0.0217138
0.0218058
0.0218767
0.0219311
0.0219722
0.0220019
0.0220209
0.022029
0.0220256
0.0220093
0.0219786
0.0219317
0.0218664
0.0217809
0.021673
0.021541
0.0213831
0.0211981
0.020985
0.0207433
0.0204729
0.0201747
0.0198498
0.0195008
0.0191308
0.0187444
0.0183476
0.0179481
0.0175556
0.0171823
0.0168429
0.0165554
0.0163402
0.0162205
0.0191538
0.0117664
0.00996755
0.0108462
0.0127389
0.0147477
0.0165039
0.0179184
0.0190153
0.0198506
0.0204805
0.0209522
0.0213032
0.021562
0.0217508
0.0218864
0.0219817
0.0220464
0.022088
0.0221117
0.0221211
0.0221186
0.0221053
0.0220814
0.0220466
0.0219998
0.0219395
0.021864
0.0217712
0.0216591
0.0215256
0.0213685
0.0211862
0.0209769
0.0207394
0.0204729
0.0201772
0.0198524
0.0194999
0.0191214
0.0187203
0.018301
0.0178696
0.0174342
0.0170055
0.0165965
0.016224
0.0159078
0.0156711
0.0155392
0.0195116
0.0119845
0.010172
0.0110854
0.0130202
0.0150626
0.0168413
0.0182694
0.0193733
0.0202104
0.0208378
0.0213033
0.0216443
0.0218896
0.0220614
0.0221766
0.0222483
0.0222868
0.0222996
0.0222927
0.02227
0.0222345
0.0221877
0.0221303
0.0220623
0.0219828
0.0218907
0.0217843
0.0216616
0.0215205
0.021359
0.0211748
0.0209659
0.0207305
0.0204672
0.0201747
0.0198524
0.0195005
0.0191198
0.0187119
0.01828
0.0178285
0.0173637
0.0168943
0.0164317
0.0159905
0.0155888
0.0152483
0.0149937
0.0148522
0.0198535
0.0121936
0.010369
0.0113166
0.0132921
0.0153666
0.0171669
0.0186083
0.0197192
0.0205585
0.0211843
0.0216445
0.0219769
0.0222103
0.0223668
0.0224634
0.0225132
0.0225267
0.0225119
0.0224749
0.0224204
0.0223515
0.0222705
0.0221783
0.0220755
0.0219614
0.0218353
0.0216955
0.0215404
0.021368
0.021176
0.0209623
0.0207246
0.0204611
0.02017
0.0198498
0.0194999
0.0191198
0.0187102
0.0182727
0.0178102
0.0173273
0.0168306
0.0163295
0.0158366
0.0153678
0.0149425
0.0145838
0.014317
0.0141693
0.0201785
0.0123929
0.0105579
0.0115387
0.0135533
0.0156584
0.0174795
0.0189336
0.0200515
0.0208934
0.0215182
0.0219744
0.0222996
0.0225227
0.0226657
0.0227455
0.0227754
0.0227657
0.0227248
0.0226589
0.0225732
0.0224712
0.0223556
0.0222279
0.0220889
0.0219387
0.0217765
0.0216013
0.0214115
0.0212051
0.0209801
0.0207343
0.0204654
0.0201714
0.0198504
0.0195008
0.0191214
0.0187119
0.0182727
0.0178052
0.0173123
0.016799
0.0162726
0.0157432
0.0152247
0.0147347
0.0142939
0.0139254
0.0136539
0.0135047
0.0204854
0.0125816
0.0107377
0.0117506
0.0138024
0.0159367
0.0177774
0.0192437
0.0203685
0.0212134
0.0218379
0.0222909
0.0226103
0.0228247
0.022956
0.0230212
0.0230332
0.0230026
0.0229374
0.0228444
0.0227287
0.0225944
0.0224446
0.0222812
0.0221054
0.0219178
0.021718
0.0215054
0.0212785
0.0210357
0.0207752
0.0204947
0.0201921
0.0198652
0.019512
0.0191308
0.0187203
0.01828
0.0178102
0.0173123
0.0167897
0.0162476
0.0156942
0.0151413
0.0146042
0.014102
0.013656
0.0132886
0.0130215
0.0128762
0.0207729
0.0127589
0.0109075
0.0119511
0.0140381
0.0161998
0.018059
0.019537
0.0206684
0.0215165
0.0221413
0.0225921
0.0229067
0.023114
0.0232356
0.0232881
0.0232846
0.0232353
0.0231482
0.0230302
0.0228865
0.0227215
0.0225384
0.0223398
0.0221272
0.0219016
0.0216631
0.0214115
0.0211457
0.0208644
0.0205659
0.0202483
0.0199093
0.019547
0.0191593
0.0187444
0.018301
0.0178285
0.0173273
0.016799
0.0162476
0.0156791
0.0151033
0.0145336
0.0139872
0.0134844
0.0130461
0.012692
0.0124392
0.0123034
0.0210396
0.0129238
0.0110661
0.0121388
0.0142587
0.016446
0.0183224
0.0198113
0.0209492
0.0218005
0.022426
0.0228753
0.0231864
0.023388
0.0235015
0.0235435
0.0235267
0.0234612
0.0233549
0.0232145
0.0230452
0.0228516
0.022637
0.0224044
0.0221558
0.0218923
0.0216149
0.0213233
0.0210173
0.0206958
0.0203573
0.0200003
0.0196227
0.0192227
0.0187982
0.0183476
0.0178696
0.0173637
0.0168306
0.0162726
0.0156942
0.0151033
0.0145114
0.013934
0.0133903
0.0129005
0.0124837
0.0121548
0.0119247
0.0118029
0.0212838
0.0130752
0.0112124
0.0123121
0.0144624
0.0166732
0.0185655
0.0200644
0.0212085
0.022063
0.0226896
0.0231381
0.0234466
0.0236436
0.0237507
0.0237841
0.0237563
0.0236771
0.0235543
0.0233942
0.0232023
0.0229828
0.0227393
0.0224749
0.0221917
0.0218916
0.0215756
0.0212442
0.0208974
0.0205346
0.0201549
0.0197568
0.0193388
0.0188991
0.0184361
0.0179481
0.0174342
0.0168943
0.0163295
0.0157432
0.0151413
0.0145336
0.013934
0.0133604
0.0128327
0.0123698
0.0119866
0.011692
0.0114902
0.0113847
0.0215039
0.0132119
0.0113449
0.0124694
0.0146472
0.0168792
0.0187858
0.020294
0.0214437
0.0223013
0.0229292
0.0233773
0.023684
0.0238776
0.0239797
0.0240062
0.0239694
0.023879
0.0237424
0.0235658
0.0233543
0.0231121
0.0228428
0.0225495
0.0222345
0.0218999
0.021547
0.0211768
0.0207898
0.0203857
0.0199642
0.0195244
0.0190649
0.0185845
0.0180818
0.0175556
0.0170055
0.0164317
0.0158366
0.0152247
0.0146042
0.0139872
0.0133903
0.0128327
0.0123337
0.011909
0.0115673
0.0113112
0.011139
0.0110501
0.0216975
0.0133324
0.0114621
0.0126086
0.0148109
0.0170615
0.0189808
0.0204971
0.0216518
0.0225124
0.0231415
0.0235897
0.023895
0.0240862
0.0241844
0.0242056
0.0241618
0.0240624
0.0239146
0.0237245
0.0234967
0.0232354
0.0229439
0.0226253
0.022282
0.0219161
0.0215292
0.0211227
0.0206974
0.0202536
0.0197913
0.0193102
0.0188096
0.0182886
0.0177463
0.0171823
0.0165965
0.0159905
0.0153678
0.0147347
0.014102
0.0134844
0.0129005
0.0123698
0.011909
0.0115282
0.0112302
0.0110116
0.0108671
0.0107933
0.021862
0.0134349
0.011562
0.0127275
0.0149505
0.0172171
0.0191471
0.0206703
0.0218293
0.0226925
0.0233229
0.0237712
0.0240758
0.0242652
0.0243605
0.0243777
0.0243285
0.0242222
0.0240658
0.0238649
0.0236242
0.0233474
0.0230378
0.0226981
0.0223308
0.0219379
0.0215213
0.0210823
0.0206223
0.020142
0.0196418
0.019122
0.0185824
0.0180227
0.0174428
0.0168429
0.016224
0.0155888
0.0149425
0.0142939
0.013656
0.0130461
0.0124837
0.0119866
0.0115673
0.0112302
0.0109723
0.0107866
0.0106656
0.0106045
0.0219938
0.0135171
0.0116424
0.0128232
0.0150628
0.0173422
0.0192807
0.0208094
0.021972
0.0228372
0.0234687
0.0239173
0.0242214
0.0244096
0.0245029
0.0245172
0.0244642
0.0243528
0.02419
0.0239811
0.0237307
0.0234421
0.0231185
0.0227624
0.0223761
0.0219615
0.0215205
0.0210548
0.0205656
0.0200541
0.0195212
0.0189675
0.0183936
0.0177999
0.0171868
0.0165554
0.0159078
0.0152483
0.0145838
0.0139254
0.0132886
0.012692
0.0121548
0.011692
0.0113112
0.0110116
0.0107866
0.0106272
0.0105249
0.0104738
0.0220882
0.0135761
0.0117001
0.0128919
0.0151436
0.017432
0.0193768
0.0209094
0.0220745
0.0229412
0.0235736
0.0240224
0.0243262
0.0245136
0.0246056
0.024618
0.0245624
0.0244477
0.0242806
0.0240664
0.0238094
0.0235128
0.0231795
0.0228119
0.0224122
0.0219822
0.0215236
0.0210382
0.0205274
0.0199925
0.0194347
0.0188552
0.0182549
0.0176347
0.0169959
0.0163402
0.0156711
0.0149937
0.014317
0.0136539
0.0130215
0.0124392
0.0119247
0.0114902
0.011139
0.0108671
0.0106656
0.0105249
0.010436
0.0103926
0.0221394
0.0136081
0.0117315
0.0129292
0.0151874
0.0174808
0.0194288
0.0209637
0.0221301
0.0229977
0.0236304
0.0240794
0.0243831
0.0245701
0.0246615
0.0246729
0.024616
0.0244995
0.0243302
0.0241133
0.0238528
0.023552
0.0232136
0.02284
0.0224331
0.0219948
0.0215267
0.0210305
0.0205077
0.0199598
0.0193881
0.018794
0.0181786
0.0175434
0.0168899
0.0162205
0.0155392
0.0148522
0.0141693
0.0135047
0.0128762
0.0123034
0.0118029
0.0113847
0.0110501
0.0107933
0.0106045
0.0104738
0.0103926
0.010354
)
;

boundaryField
{
    bottomWall
    {
        type            kqRWallFunction;
        value           nonuniform List<scalar> 
50
(
0.00124952
0.00133508
0.00153412
0.00184406
0.00225038
0.00273452
0.00327801
0.00386443
0.00447999
0.00511348
0.00575597
0.00640047
0.00704168
0.00767574
0.00830003
0.0089129
0.00951347
0.0101014
0.0106769
0.01124
0.0117914
0.0123313
0.0128603
0.0133787
0.0138867
0.0143846
0.0148724
0.0153502
0.0158178
0.0162751
0.0167218
0.0171576
0.017582
0.0179944
0.0183944
0.0187811
0.0191538
0.0195116
0.0198535
0.0201785
0.0204854
0.0207729
0.0210396
0.0212838
0.0215039
0.0216975
0.021862
0.0219938
0.0220882
0.0221394
)
;
    }
    leftWall
    {
        type            kqRWallFunction;
        value           nonuniform List<scalar> 
50
(
0.00124952
0.00133508
0.00153412
0.00184406
0.00225038
0.00273452
0.00327801
0.00386443
0.00447999
0.00511348
0.00575597
0.00640047
0.00704168
0.00767574
0.00830003
0.0089129
0.00951347
0.0101014
0.0106769
0.01124
0.0117914
0.0123313
0.0128603
0.0133787
0.0138867
0.0143846
0.0148724
0.0153502
0.0158178
0.0162751
0.0167218
0.0171576
0.017582
0.0179944
0.0183944
0.0187811
0.0191538
0.0195116
0.0198535
0.0201785
0.0204854
0.0207729
0.0210396
0.0212838
0.0215039
0.0216975
0.021862
0.0219938
0.0220882
0.0221394
)
;
    }
    topSym
    {
        type            symmetryPlane;
    }
    rightSym
    {
        type            symmetryPlane;
    }
    inlet
    {
        type            cyclic;
    }
    outlet
    {
        type            cyclic;
    }
}


// ************************************************************************* //
