/*--------------------------------*- C++ -*----------------------------------*\
| =========                 |                                                 |
| \\      /  F ield         | OpenFOAM: The Open Source CFD Toolbox           |
|  \\    /   O peration     | Version:  v1912                                 |
|   \\  /    A nd           | Website:  www.openfoam.com                      |
|    \\/     M anipulation  |                                                 |
\*---------------------------------------------------------------------------*/
FoamFile
{
    version     2.0;
    format      ascii;
    class       volScalarField;
    location    "3000";
    object      nut;
}
// * * * * * * * * * * * * * * * * * * * * * * * * * * * * * * * * * * * * * //

dimensions      [0 2 -1 0 0 0 0];


internalField   nonuniform List<scalar> 
2500
(
6.50372e-05
6.16526e-05
6.10281e-05
6.30535e-05
6.66679e-05
7.10597e-05
7.57147e-05
8.03389e-05
8.4778e-05
8.896e-05
9.28592e-05
9.64748e-05
9.98195e-05
0.000102912
0.000105775
0.000108431
0.000110901
0.000113205
0.000115362
0.000117389
0.000119298
0.000121103
0.000122813
0.000124438
0.000125985
0.00012746
0.000128869
0.000130216
0.000131504
0.000132738
0.000133919
0.000135049
0.00013613
0.000137163
0.000138149
0.000139088
0.000139981
0.000140827
0.000141626
0.000142377
0.000143078
0.000143729
0.000144328
0.000144872
0.000145358
0.000145783
0.000146143
0.000146429
0.000146634
0.000146744
6.16526e-05
6.00406e-05
5.78e-05
5.72453e-05
5.85179e-05
6.10642e-05
6.42902e-05
6.77749e-05
7.12655e-05
7.46248e-05
7.77867e-05
8.07265e-05
8.34426e-05
8.59463e-05
8.82552e-05
9.03895e-05
9.23693e-05
9.4214e-05
9.59411e-05
9.75658e-05
9.91015e-05
0.000100559
0.000101949
0.000103279
0.000104554
0.000105782
0.000106966
0.00010811
0.000109217
0.000110289
0.000111328
0.000112335
0.000113312
0.000114257
0.000115173
0.000116057
0.000116908
0.000117727
0.00011851
0.000119256
0.000119962
0.000120625
0.000121241
0.000121807
0.000122317
0.000122767
0.00012315
0.000123456
0.000123676
0.000123795
6.10281e-05
5.78e-05
5.57116e-05
5.52702e-05
5.63604e-05
5.87651e-05
6.2031e-05
6.57185e-05
6.95127e-05
7.322e-05
7.67346e-05
8.00077e-05
8.30265e-05
8.57988e-05
8.83439e-05
9.06866e-05
9.2853e-05
9.48681e-05
9.6755e-05
9.85338e-05
0.000100222
0.000101834
0.000103381
0.000104875
0.000106323
0.000107731
0.000109106
0.00011045
0.000111769
0.000113063
0.000114335
0.000115586
0.000116816
0.000118024
0.000119209
0.00012037
0.000121503
0.000122607
0.000123676
0.000124707
0.000125693
0.000126629
0.000127508
0.000128321
0.000129061
0.000129717
0.000130278
0.000130729
0.000131053
0.000131229
6.30535e-05
5.72453e-05
5.52702e-05
5.70089e-05
6.08317e-05
6.59099e-05
7.17368e-05
7.78874e-05
8.40292e-05
8.99384e-05
9.54851e-05
0.000100609
0.000105299
0.000109572
0.000113464
0.000117019
0.000120283
0.000123299
0.000126108
0.000128746
0.000131242
0.000133622
0.000135906
0.000138113
0.000140256
0.000142347
0.000144395
0.000146406
0.000148388
0.000150344
0.000152276
0.000154187
0.000156077
0.000157944
0.000159787
0.000161602
0.000163386
0.000165131
0.000166832
0.00016848
0.000170064
0.000171574
0.000172998
0.000174321
0.000175527
0.0001766
0.000177519
0.00017826
0.000178793
0.000179083
6.66679e-05
5.85179e-05
5.63604e-05
6.08317e-05
6.93952e-05
7.99307e-05
9.12059e-05
0.000102526
0.000113458
0.000123737
0.000133218
0.000141849
0.000149639
0.000156638
0.000162922
0.000168578
0.000173693
0.000178352
0.00018263
0.000186595
0.000190304
0.000193804
0.000197137
0.000200334
0.000203424
0.000206428
0.000209363
0.000212245
0.000215083
0.000217888
0.000220665
0.000223417
0.000226147
0.000228854
0.000231536
0.000234188
0.000236803
0.000239373
0.000241887
0.000244332
0.000246691
0.000248948
0.000251083
0.000253072
0.000254891
0.000256512
0.000257903
0.000259026
0.000259835
0.000260275
7.10597e-05
6.10642e-05
5.87651e-05
6.59099e-05
7.99307e-05
9.76969e-05
0.000116862
0.000136036
0.000154428
0.000171593
0.000187304
0.00020148
0.000214142
0.000225377
0.000235316
0.000244106
0.000251904
0.000258859
0.000265108
0.000270776
0.000275968
0.000280777
0.000285277
0.000289533
0.000293597
0.000297512
0.000301313
0.000305028
0.000308681
0.000312289
0.000315865
0.000319419
0.000322957
0.00032648
0.000329987
0.000333473
0.00033693
0.000340345
0.000343703
0.000346987
0.000350172
0.000353233
0.000356141
0.000358863
0.00036136
0.000363593
0.000365513
0.000367067
0.000368188
0.000368798
7.57147e-05
6.42902e-05
6.2031e-05
7.17368e-05
9.12059e-05
0.000116862
0.000145361
0.000174401
0.000202587
0.000229106
0.000253512
0.000275601
0.000295331
0.000312778
0.000328093
0.000341476
0.000353148
0.000363339
0.000372269
0.000380143
0.000387147
0.00039344
0.000399164
0.000404435
0.000409353
0.000414001
0.000418448
0.000422751
0.000426954
0.000431094
0.000435201
0.000439296
0.000443393
0.000447501
0.000451622
0.000455753
0.000459884
0.000464001
0.000468084
0.000472109
0.000476045
0.000479855
0.000483499
0.000486929
0.000490094
0.000492937
0.000495391
0.000497382
0.000498823
0.000499608
8.03389e-05
6.77749e-05
6.57185e-05
7.78874e-05
0.000102526
0.000136036
0.000174401
0.000214414
0.000253941
0.000291678
0.000326864
0.000359078
0.000388137
0.00041402
0.000436823
0.00045673
0.000473983
0.000488857
0.000501643
0.000512628
0.00052209
0.000530282
0.000537436
0.000543754
0.000549414
0.000554567
0.000559342
0.000563848
0.000568173
0.000572393
0.000576565
0.000580735
0.000584938
0.000589197
0.000593524
0.000597923
0.000602385
0.000606895
0.000611431
0.000615962
0.000620447
0.000624839
0.000629082
0.000633112
0.000636861
0.00064025
0.000643192
0.00064559
0.00064733
0.000648281
8.4778e-05
7.12655e-05
6.95127e-05
8.40292e-05
0.000113458
0.000154428
0.000202587
0.000253941
0.000305566
0.000355588
0.000402883
0.000446797
0.000486971
0.000523242
0.000555592
0.000584112
0.000608983
0.000630449
0.000648805
0.000664374
0.000677496
0.000688507
0.000697734
0.000705484
0.000712035
0.000717641
0.000722524
0.000726878
0.000730867
0.000734633
0.00073829
0.000741932
0.00074563
0.000749438
0.000753391
0.000757509
0.000761794
0.000766232
0.000770803
0.00077547
0.000780183
0.000784881
0.000789491
0.000793931
0.000798109
0.000801924
0.000805263
0.000808001
0.000809998
0.000811092
8.896e-05
7.46248e-05
7.322e-05
8.99384e-05
0.000123737
0.000171593
0.000229106
0.000291678
0.000355588
0.000418325
0.000478364
0.000534815
0.000587161
0.000635116
0.000678544
0.000717414
0.000751795
0.000781831
0.000807736
0.000829788
0.000848309
0.000863658
0.000876213
0.000886361
0.000894479
0.000900931
0.000906058
0.000910169
0.000913542
0.00091642
0.000919012
0.000921493
0.000924005
0.000926659
0.000929536
0.000932689
0.000936145
0.000939904
0.000943954
0.000948258
0.000952757
0.000957378
0.000962029
0.000966606
0.000970991
0.000975054
0.000978652
0.00098163
0.000983817
0.00098502
9.28592e-05
7.77867e-05
7.67346e-05
9.54851e-05
0.000133218
0.000187304
0.000253512
0.000326864
0.000402883
0.000478364
0.000551324
0.000620618
0.00068559
0.000745863
0.000801217
0.000851534
0.000896773
0.000936958
0.000972182
0.00100261
0.00102846
0.00105004
0.00106768
0.00108178
0.00109277
0.00110108
0.00110715
0.00111143
0.00111431
0.00111618
0.00111739
0.00111822
0.00111893
0.00111973
0.00112078
0.00112221
0.00112408
0.00112644
0.00112929
0.00113261
0.00113634
0.00114039
0.00114466
0.00114902
0.00115332
0.00115739
0.00116106
0.00116415
0.00116643
0.0011677
9.64748e-05
8.07265e-05
8.00077e-05
0.000100609
0.000141849
0.00020148
0.000275601
0.000359078
0.000446797
0.000534815
0.000620618
0.000702764
0.000780458
0.000853247
0.000920865
0.000983141
0.00103997
0.00109128
0.00113706
0.00117734
0.00121221
0.00124185
0.00126647
0.0012864
0.00130202
0.00131375
0.00132209
0.00132755
0.00133066
0.00133192
0.00133183
0.00133085
0.00132938
0.00132778
0.00132634
0.00132528
0.00132479
0.00132495
0.00132584
0.00132745
0.00132974
0.00133263
0.001336
0.00133969
0.00134353
0.00134731
0.00135083
0.00135384
0.00135611
0.00135737
9.98195e-05
8.34426e-05
8.30265e-05
0.000105299
0.000149639
0.000214142
0.000295331
0.000388137
0.000486971
0.000587161
0.00068559
0.000780458
0.000870795
0.000956083
0.00103602
0.00111041
0.00117912
0.00124203
0.00129905
0.00135012
0.0013952
0.00143432
0.00146757
0.00149513
0.00151724
0.00153425
0.0015466
0.0015548
0.00155941
0.00156105
0.00156032
0.00155786
0.00155424
0.00155
0.00154561
0.00154146
0.00153786
0.00153504
0.00153314
0.00153224
0.00153234
0.00153337
0.00153522
0.00153771
0.00154063
0.00154375
0.00154681
0.00154953
0.00155163
0.00155282
0.000102912
8.59463e-05
8.57988e-05
0.000109572
0.000156638
0.000225377
0.000312778
0.00041402
0.000523242
0.000635116
0.000745863
0.000853247
0.000956083
0.00105376
0.00114596
0.00123246
0.00131313
0.00138781
0.00145638
0.00151872
0.0015747
0.00162426
0.00166733
0.00170394
0.00173418
0.00175826
0.00177646
0.00178922
0.00179703
0.00180053
0.00180038
0.00179733
0.0017921
0.00178543
0.00177799
0.00177038
0.00176312
0.0017566
0.00175112
0.00174688
0.00174396
0.00174235
0.00174196
0.0017426
0.00174406
0.00174607
0.00174831
0.00175047
0.00175223
0.00175325
0.000105775
8.82552e-05
8.83439e-05
0.000113464
0.000162922
0.000235316
0.000328093
0.000436823
0.000555592
0.000678544
0.000801217
0.000920865
0.00103602
0.00114596
0.00125031
0.00134887
0.00144146
0.00152796
0.00160821
0.00168204
0.0017493
0.00180983
0.00186347
0.00191013
0.00194974
0.00198234
0.00200806
0.00202715
0.00204
0.00204712
0.00204917
0.00204689
0.00204113
0.00203275
0.00202262
0.00201159
0.00200038
0.00198965
0.0019799
0.00197152
0.00196473
0.00195964
0.00195619
0.00195426
0.00195362
0.00195396
0.00195495
0.00195622
0.00195739
0.00195812
0.000108431
9.03895e-05
9.06866e-05
0.000117019
0.000168578
0.000244106
0.000341476
0.00045673
0.000584112
0.000717414
0.000851534
0.000983141
0.00111041
0.00123246
0.00134887
0.00145939
0.00156388
0.00166219
0.00175415
0.0018396
0.00191832
0.00199013
0.0020548
0.00211213
0.00216195
0.00220415
0.00223869
0.00226564
0.00228521
0.00229774
0.00230377
0.00230396
0.00229913
0.00229024
0.00227829
0.0022643
0.00224928
0.00223414
0.00221964
0.00220644
0.00219497
0.00218551
0.00217815
0.00217281
0.00216932
0.00216736
0.00216657
0.00216654
0.00216686
0.00216715
0.000110901
9.23693e-05
9.2853e-05
0.000120283
0.000173693
0.000251904
0.000353148
0.000473983
0.000608983
0.000751795
0.000896773
0.00103997
0.00117912
0.00131313
0.00144146
0.00156388
0.00168022
0.00179033
0.00189403
0.00199115
0.00208146
0.00216473
0.0022407
0.0023091
0.00236969
0.00242223
0.00246655
0.00250254
0.00253022
0.00254976
0.00256148
0.0025659
0.00256373
0.00255587
0.00254337
0.00252739
0.00250912
0.00248975
0.00247034
0.00245184
0.00243501
0.00242036
0.00240818
0.00239855
0.00239136
0.00238636
0.00238317
0.00238136
0.00238049
0.00238017
0.000113205
9.4214e-05
9.48681e-05
0.000123299
0.000178352
0.000258859
0.000363339
0.000488857
0.000630449
0.000781831
0.000936958
0.00109128
0.00124203
0.00138781
0.00152796
0.00166219
0.00179033
0.00191221
0.00202768
0.00213652
0.00223851
0.00233339
0.00242085
0.00250061
0.00257233
0.00263572
0.00269048
0.00273638
0.00277326
0.0028011
0.00282002
0.00283033
0.00283255
0.00282743
0.00281597
0.00279932
0.00277881
0.00275582
0.00273172
0.00270778
0.0026851
0.00266454
0.00264669
0.00263185
0.00262007
0.00261119
0.00260488
0.00260071
0.00259825
0.0025971
0.000115362
9.59411e-05
9.6755e-05
0.000126108
0.00018263
0.000265108
0.000372269
0.000501643
0.000648805
0.000807736
0.000972182
0.00113706
0.00129905
0.00145638
0.00160821
0.00175415
0.00189403
0.00202768
0.00215492
0.00227554
0.00238929
0.00249589
0.00259502
0.00268634
0.00276949
0.00284408
0.00290977
0.00296621
0.00301311
0.00305026
0.00307761
0.00309522
0.00310342
0.00310275
0.00309401
0.00307828
0.00305689
0.00303132
0.00300316
0.002974
0.0029453
0.00291834
0.00289406
0.0028731
0.00285579
0.00284212
0.00283189
0.00282471
0.00282017
0.00281794
0.000117389
9.75658e-05
9.85338e-05
0.000128746
0.000186595
0.000270776
0.000380143
0.000512628
0.000664374
0.000829788
0.00100261
0.00117734
0.00135012
0.00151872
0.00168204
0.0018396
0.00199115
0.00213652
0.00227554
0.00240797
0.00253357
0.00265201
0.00276295
0.00286603
0.00296083
0.00304694
0.00312393
0.00319138
0.00324889
0.00329614
0.00333287
0.00335897
0.00337452
0.00337982
0.00337546
0.00336233
0.00334163
0.00331483
0.00328364
0.00324988
0.00321537
0.00318178
0.00315053
0.00312268
0.0030989
0.0030795
0.00306445
0.00305352
0.00304637
0.00304276
0.000119298
9.91015e-05
0.000100222
0.000131242
0.000190304
0.000275968
0.000387147
0.00052209
0.000677496
0.000848309
0.00102846
0.00121221
0.0013952
0.0015747
0.0017493
0.00191832
0.00208146
0.00223851
0.00238929
0.00253357
0.00267106
0.00280145
0.00292435
0.00303935
0.00314603
0.00324391
0.00333252
0.00341136
0.00347997
0.0035379
0.00358476
0.00362027
0.0036443
0.00365691
0.00365844
0.00364952
0.00363115
0.00360469
0.00357181
0.00353445
0.00349471
0.00345464
0.00341615
0.00338079
0.00334971
0.00332364
0.00330285
0.00328736
0.00327699
0.00327165
0.000121103
0.000100559
0.000101834
0.000133622
0.000193804
0.000280777
0.00039344
0.000530282
0.000688507
0.000863658
0.00105004
0.00124185
0.00143432
0.00162426
0.00180983
0.00199013
0.00216473
0.00233339
0.00249589
0.00265201
0.00280145
0.00294385
0.00307883
0.00320593
0.00332468
0.00343458
0.00353509
0.00362567
0.00370577
0.00377486
0.00383245
0.00387811
0.00391152
0.00393254
0.00394125
0.00393802
0.00392358
0.00389907
0.00386603
0.00382638
0.00378236
0.00373635
0.00369068
0.00364747
0.00360843
0.00357481
0.00354737
0.00352646
0.0035122
0.00350478
0.000122813
0.000101949
0.000103381
0.000135906
0.000197137
0.000285277
0.000399164
0.000537436
0.000697734
0.000876213
0.00106768
0.00126647
0.00146757
0.00166733
0.00186347
0.0020548
0.0022407
0.00242085
0.00259502
0.00276295
0.00292435
0.00307883
0.00322598
0.00336532
0.00349633
0.00361846
0.00373113
0.00383375
0.0039257
0.00400638
0.00407519
0.0041316
0.00417514
0.00420546
0.00422244
0.00422617
0.00421712
0.00419613
0.00416452
0.00412408
0.00407704
0.00402597
0.00397358
0.0039225
0.00387508
0.00383321
0.00379825
0.00377107
0.00375225
0.00374233
0.000124438
0.000103279
0.000104875
0.000138113
0.000200334
0.000289533
0.000404435
0.000543754
0.000705484
0.000886361
0.00108178
0.0012864
0.00149513
0.00170394
0.00191013
0.00211213
0.0023091
0.00250061
0.00268634
0.00286603
0.00303935
0.00320593
0.00336532
0.003517
0.00366042
0.00379499
0.00392007
0.00403501
0.00413914
0.00423177
0.00431225
0.00437991
0.00443419
0.00447457
0.00450071
0.0045125
0.0045101
0.00449407
0.00446545
0.00442578
0.00437719
0.00432226
0.00426396
0.00420538
0.00414947
0.00409887
0.00405567
0.00402144
0.00399736
0.00398455
0.000125985
0.000104554
0.000106323
0.000140256
0.000203424
0.000293597
0.000409353
0.000549414
0.000712035
0.000894479
0.00109277
0.00130202
0.00151724
0.00173418
0.00194974
0.00216195
0.00236969
0.00257233
0.00276949
0.00296083
0.00314603
0.00332468
0.00349633
0.00366042
0.00381638
0.00396355
0.00410125
0.00422877
0.00434538
0.00445032
0.00454284
0.00462223
0.00468776
0.00473882
0.0047749
0.00479565
0.00480099
0.00479121
0.00476701
0.00472968
0.00468107
0.0046237
0.00456063
0.00449526
0.00443115
0.00437164
0.0043197
0.00427776
0.00424782
0.00423172
0.00012746
0.000105782
0.000107731
0.000142347
0.000206428
0.000297512
0.000414001
0.000554567
0.000717641
0.000900931
0.00110108
0.00131375
0.00153425
0.00175826
0.00198234
0.00220415
0.00242223
0.00263572
0.00284408
0.00304694
0.00324391
0.00343458
0.00361846
0.00379499
0.00396355
0.00412345
0.00427395
0.00441427
0.00454363
0.00466119
0.00476614
0.00485765
0.00493493
0.00499722
0.00504387
0.00507436
0.00508839
0.00508596
0.00506749
0.00503393
0.00498687
0.0049286
0.00486213
0.00479106
0.00471938
0.00465117
0.0045903
0.0045402
0.00450388
0.00448416
0.000128869
0.000106966
0.000109106
0.000144395
0.000209363
0.000301313
0.000418448
0.000559342
0.000722524
0.000906058
0.00110715
0.00132209
0.0015466
0.00177646
0.00200806
0.00223869
0.00246655
0.00269048
0.00290977
0.00312393
0.00333252
0.00353509
0.00373113
0.00392007
0.00410125
0.00427395
0.00443737
0.00459068
0.00473303
0.0048635
0.00498121
0.00508523
0.00517468
0.0052487
0.00530651
0.00534742
0.00537094
0.00537683
0.00536524
0.00533679
0.00529276
0.00523515
0.00516681
0.00509139
0.00501317
0.00493686
0.00486723
0.00480881
0.00476583
0.00474225
0.000130216
0.00010811
0.00011045
0.000146406
0.000212245
0.000305028
0.000422751
0.000563848
0.000726878
0.000910169
0.00111143
0.00132755
0.0015548
0.00178922
0.00202715
0.00226564
0.00250254
0.00273638
0.00296621
0.00319138
0.00341136
0.00362567
0.00383375
0.00403501
0.00422877
0.00441427
0.00459068
0.00475711
0.00491263
0.00505626
0.00518703
0.00530392
0.00540595
0.00549217
0.00556165
0.00561359
0.00564731
0.00566238
0.00565868
0.00563655
0.00559693
0.00554154
0.00547295
0.00539473
0.00531133
0.00522793
0.00515012
0.00508361
0.00503393
0.00500639
0.000131504
0.000109217
0.000111769
0.000148388
0.000215083
0.000308681
0.000426954
0.000568173
0.000730867
0.000913542
0.00111431
0.00133066
0.00155941
0.00179703
0.00204
0.00228521
0.00253022
0.00277326
0.00301311
0.00324889
0.00347997
0.00370577
0.0039257
0.00413914
0.00434538
0.00454363
0.00473303
0.00491263
0.00508145
0.00523842
0.0053825
0.00551257
0.00562756
0.0057264
0.00580805
0.00587158
0.00591617
0.00594118
0.00594629
0.00593156
0.00589766
0.00584596
0.00577877
0.00569946
0.0056125
0.0055234
0.00543848
0.00536453
0.00530845
0.00527706
0.000132738
0.000110289
0.000113063
0.000150344
0.000217888
0.000312289
0.000431094
0.000572393
0.000734633
0.00091642
0.00111618
0.00133192
0.00156105
0.00180053
0.00204712
0.00229774
0.00254976
0.0028011
0.00305026
0.00329614
0.0035379
0.00377486
0.00400638
0.00423177
0.00445032
0.00466119
0.0048635
0.00505626
0.00523842
0.00540887
0.00556644
0.00570996
0.00583824
0.00595009
0.00604438
0.00612004
0.0061761
0.00621178
0.00622654
0.00622024
0.00619326
0.00614669
0.00608254
0.00600394
0.00591528
0.00582226
0.00573174
0.00565149
0.00558975
0.00555485
0.000133919
0.000111328
0.000114335
0.000152276
0.000220665
0.000315865
0.000435201
0.000576565
0.00073829
0.000919012
0.00111739
0.00133183
0.00156032
0.00180038
0.00204917
0.00230377
0.00256148
0.00282002
0.00307761
0.00333287
0.00358476
0.00383245
0.00407519
0.00431225
0.00454284
0.00476614
0.00498121
0.00518703
0.0053825
0.00556644
0.00573763
0.00589479
0.00603662
0.00616185
0.00626921
0.0063575
0.00642563
0.00647266
0.0064979
0.006501
0.00648211
0.00644206
0.0063826
0.00630661
0.00621832
0.00612351
0.0060294
0.00594454
0.00587837
0.0058406
0.000135049
0.000112335
0.000115586
0.000154187
0.000223417
0.000319419
0.000439296
0.000580735
0.000741932
0.000921493
0.00111822
0.00133085
0.00155786
0.00179733
0.00204689
0.00230396
0.0025659
0.00283033
0.00309522
0.00335897
0.00362027
0.00387811
0.0041316
0.00437991
0.00462223
0.00485765
0.00508523
0.00530392
0.00551257
0.00570996
0.00589479
0.00606569
0.0062213
0.00636019
0.00648101
0.00658241
0.00666319
0.00672226
0.00675878
0.00677224
0.0067626
0.0067305
0.00667744
0.00660607
0.00652047
0.00642637
0.0063312
0.00624406
0.00617525
0.00613563
0.00013613
0.000113312
0.000116816
0.000156077
0.000226147
0.000322957
0.000443393
0.000584938
0.00074563
0.000924005
0.00111893
0.00132938
0.00155424
0.0017921
0.00204113
0.00229913
0.00256373
0.00283255
0.00310342
0.00337452
0.0036443
0.00391152
0.00417514
0.00443419
0.00468776
0.00493493
0.00517468
0.00540595
0.00562756
0.00583824
0.00603662
0.0062213
0.00639077
0.00654356
0.00667816
0.00679313
0.00688711
0.00695891
0.00700755
0.00703237
0.00703321
0.00701054
0.0069657
0.00690118
0.00682091
0.0067305
0.00663746
0.0065511
0.00648219
0.0064422
0.000137163
0.000114257
0.000118024
0.000157944
0.000228854
0.00032648
0.000447501
0.000589197
0.000749438
0.000926659
0.00111973
0.00132778
0.00155
0.00178543
0.00203275
0.00229024
0.00255587
0.00282743
0.00310275
0.00337982
0.00365691
0.00393254
0.00420546
0.00447457
0.00473882
0.00499722
0.0052487
0.00549217
0.0057264
0.00595009
0.00616185
0.00636019
0.00654356
0.00671036
0.00685901
0.00698793
0.00709567
0.00718089
0.00724252
0.00727979
0.00729245
0.00728086
0.00724632
0.00719122
0.00711938
0.00703635
0.0069495
0.00686799
0.00680248
0.00676424
0.000138149
0.000115173
0.000119209
0.000159787
0.000231536
0.000329987
0.000451622
0.000593524
0.000753391
0.000929536
0.00112078
0.00132634
0.00154561
0.00177799
0.00202262
0.00227829
0.00254337
0.00281597
0.00309401
0.00337546
0.00365844
0.00394125
0.00422244
0.00450071
0.0047749
0.00504387
0.00530651
0.00556165
0.00580805
0.00604438
0.00626921
0.00648101
0.00667816
0.00685901
0.00702187
0.00716508
0.00728708
0.00738644
0.007462
0.00751293
0.00753893
0.00754039
0.00751861
0.00747606
0.00741658
0.00734564
0.00727035
0.00719929
0.00714208
0.00710863
0.000139088
0.000116057
0.00012037
0.000161602
0.000234188
0.000333473
0.000455753
0.000597923
0.000757509
0.000932689
0.00112221
0.00132528
0.00154146
0.00177038
0.00201159
0.0022643
0.00252739
0.00279932
0.00307828
0.00336233
0.00364952
0.00393802
0.00422617
0.0045125
0.00479565
0.00507436
0.00534742
0.00561359
0.00587158
0.00612004
0.0063575
0.00658241
0.00679313
0.00698793
0.00716508
0.00732285
0.00745959
0.00757383
0.00766434
0.00773031
0.00777149
0.00778839
0.00778251
0.00775656
0.00771463
0.00766219
0.00760593
0.00755324
0.00751143
0.00748723
0.000139981
0.000116908
0.000121503
0.000163386
0.000236803
0.00033693
0.000459884
0.000602385
0.000761794
0.000936145
0.00112408
0.00132479
0.00153786
0.00176312
0.00200038
0.00224928
0.00250912
0.00277881
0.00305689
0.00334163
0.00363115
0.00392358
0.00421712
0.0045101
0.00480099
0.00508839
0.00537094
0.00564731
0.00591617
0.0061761
0.00642563
0.00666319
0.00688711
0.00709567
0.00728708
0.00745959
0.00761154
0.00774142
0.00784805
0.00793071
0.00798933
0.00802475
0.00803892
0.0080351
0.00801794
0.0079931
0.0079667
0.00794399
0.00792815
0.0079199
0.000140827
0.000117727
0.000122607
0.000165131
0.000239373
0.000340345
0.000464001
0.000606895
0.000766232
0.000939904
0.00112644
0.00132495
0.00153504
0.0017566
0.00198965
0.00223414
0.00248975
0.00275582
0.00303132
0.00331483
0.00360469
0.00389907
0.00419613
0.00449407
0.00479121
0.00508596
0.00537683
0.00566238
0.00594118
0.00621178
0.00647266
0.00672226
0.00695891
0.00718089
0.00738644
0.00757383
0.00774142
0.00788779
0.00801191
0.00811329
0.00819229
0.00825035
0.00829029
0.00831643
0.00833447
0.00835062
0.00837014
0.00839488
0.00842096
0.0084388
0.000141626
0.00011851
0.000123676
0.000166832
0.000241887
0.000343703
0.000468084
0.000611431
0.000770803
0.000943954
0.00112929
0.00132584
0.00153314
0.00175112
0.0019799
0.00221964
0.00247034
0.00273172
0.00300316
0.00328364
0.00357181
0.00386603
0.00416452
0.00446545
0.00476701
0.00506749
0.00536524
0.00565868
0.00594629
0.00622654
0.0064979
0.00675878
0.00700755
0.00724252
0.007462
0.00766434
0.00784805
0.00801191
0.00815518
0.00827791
0.00838119
0.00846759
0.00854143
0.0086089
0.00867754
0.00875465
0.00884426
0.00894274
0.0090348
0.00909403
0.000142377
0.000119256
0.000124707
0.00016848
0.000244332
0.000346987
0.000472109
0.000615962
0.00077547
0.000948258
0.00113261
0.00132745
0.00153224
0.00174688
0.00197152
0.00220644
0.00245184
0.00270778
0.002974
0.00324988
0.00353445
0.00382638
0.00412408
0.00442578
0.00472968
0.00503393
0.00533679
0.00563655
0.00593156
0.00622024
0.006501
0.00677224
0.00703237
0.00727979
0.00751293
0.00773031
0.00793071
0.00811329
0.00827791
0.00842549
0.00855844
0.00868123
0.00880071
0.00892618
0.00906827
0.00923612
0.00943183
0.00964315
0.00983675
0.00995988
0.000143078
0.000119962
0.000125693
0.000170064
0.000246691
0.000350172
0.000476045
0.000620447
0.000780183
0.000952757
0.00113634
0.00132974
0.00153234
0.00174396
0.00196473
0.00219497
0.00243501
0.0026851
0.0029453
0.00321537
0.00349471
0.00378236
0.00407704
0.00437719
0.00468107
0.00498687
0.00529276
0.00559693
0.00589766
0.00619326
0.00648211
0.0067626
0.00703321
0.00729245
0.00753893
0.00777149
0.00798933
0.00819229
0.00838119
0.00855844
0.00872864
0.00889931
0.00908146
0.00928932
0.0095384
0.00984058
0.0101949
0.0105754
0.0109213
0.0111401
0.000143729
0.000120625
0.000126629
0.000171574
0.000248948
0.000353233
0.000479855
0.000624839
0.000784881
0.000957378
0.00114039
0.00133263
0.00153337
0.00174235
0.00195964
0.00218551
0.00242036
0.00266454
0.00291834
0.00318178
0.00345464
0.00373635
0.00402597
0.00432226
0.0046237
0.0049286
0.00523515
0.00554154
0.00584596
0.00614669
0.00644206
0.0067305
0.00701054
0.00728086
0.00754039
0.00778839
0.00802475
0.00825035
0.00846759
0.00868123
0.00889931
0.00913424
0.00940342
0.00972865
0.0101327
0.010631
0.0112174
0.0118448
0.0124114
0.0127682
0.000144328
0.000121241
0.000127508
0.000172998
0.000251083
0.000356141
0.000483499
0.000629082
0.000789491
0.000962029
0.00114466
0.001336
0.00153522
0.00174196
0.00195619
0.00217815
0.00240818
0.00264669
0.00289406
0.00315053
0.00341615
0.00369068
0.00397358
0.00426396
0.00456063
0.00486213
0.00516681
0.00547295
0.00577877
0.00608254
0.0063826
0.00667744
0.0069657
0.00724632
0.00751861
0.00778251
0.00803892
0.00829029
0.00854143
0.00880071
0.00908146
0.00940342
0.00979354
0.0102846
0.0109093
0.0116873
0.0126027
0.0135768
0.0144505
0.0149975
0.000144872
0.000121807
0.000128321
0.000174321
0.000253072
0.000358863
0.000486929
0.000633112
0.000793931
0.000966606
0.00114902
0.00133969
0.00153771
0.0017426
0.00195426
0.00217281
0.00239855
0.00263185
0.0028731
0.00312268
0.00338079
0.00364747
0.0039225
0.00420538
0.00449526
0.00479106
0.00509139
0.00539473
0.00569946
0.00600394
0.00630661
0.00660607
0.00690118
0.00719122
0.00747606
0.00775656
0.0080351
0.00831643
0.0086089
0.00892618
0.00928932
0.00972865
0.0102846
0.0110048
0.0119347
0.0130969
0.0144592
0.0158982
0.0171783
0.0179752
0.000145358
0.000122317
0.000129061
0.000175527
0.000254891
0.00036136
0.000490094
0.000636861
0.000798109
0.000970991
0.00115332
0.00134353
0.00154063
0.00174406
0.00195362
0.00216932
0.00239136
0.00262007
0.00285579
0.0030989
0.00334971
0.00360843
0.00387508
0.00414947
0.00443115
0.00471938
0.00501317
0.00531133
0.0056125
0.00591528
0.00621832
0.00652047
0.00682091
0.00711938
0.00741658
0.00771463
0.00801794
0.00833447
0.00867754
0.00906827
0.0095384
0.0101327
0.0109093
0.0119347
0.0132682
0.0149324
0.0168697
0.0188989
0.020692
0.0218047
0.000145783
0.000122767
0.000129717
0.0001766
0.000256512
0.000363593
0.000492937
0.00064025
0.000801924
0.000975054
0.00115739
0.00134731
0.00154375
0.00174607
0.00195396
0.00216736
0.00238636
0.00261119
0.00284212
0.0030795
0.00332364
0.00357481
0.00383321
0.00409887
0.00437164
0.00465117
0.00493686
0.00522793
0.0055234
0.00582226
0.00612351
0.00642637
0.0067305
0.00703635
0.00734564
0.00766219
0.0079931
0.00835062
0.00875465
0.00923612
0.00984058
0.010631
0.0116873
0.0130969
0.0149324
0.017211
0.0198433
0.0225841
0.0250049
0.0265135
0.000146143
0.00012315
0.000130278
0.000177519
0.000257903
0.000365513
0.000495391
0.000643192
0.000805263
0.000978652
0.00116106
0.00135083
0.00154681
0.00174831
0.00195495
0.00216657
0.00238317
0.00260488
0.00283189
0.00306445
0.00330285
0.00354737
0.00379825
0.00405567
0.0043197
0.0045903
0.00486723
0.00515012
0.00543848
0.00573174
0.0060294
0.0063312
0.00663746
0.0069495
0.00727035
0.00760593
0.0079667
0.00837014
0.00884426
0.00943183
0.0101949
0.0112174
0.0126027
0.0144592
0.0168697
0.0198433
0.0232613
0.0268273
0.030018
0.0320472
0.000146429
0.000123456
0.000130729
0.00017826
0.000259026
0.000367067
0.000497382
0.00064559
0.000808001
0.00098163
0.00116415
0.00135384
0.00154953
0.00175047
0.00195622
0.00216654
0.00238136
0.00260071
0.00282471
0.00305352
0.00328736
0.00352646
0.00377107
0.00402144
0.00427776
0.0045402
0.00480881
0.00508361
0.00536453
0.00565149
0.00594454
0.00624406
0.0065511
0.00686799
0.00719929
0.00755324
0.00794399
0.00839488
0.00894274
0.00964315
0.0105754
0.0118448
0.0135768
0.0158982
0.0188989
0.0225841
0.0268273
0.0313228
0.0354908
0.0382861
0.000146634
0.000123676
0.000131053
0.000178793
0.000259835
0.000368188
0.000498823
0.00064733
0.000809998
0.000983817
0.00116643
0.00135611
0.00155163
0.00175223
0.00195739
0.00216686
0.00238049
0.00259825
0.00282017
0.00304637
0.00327699
0.0035122
0.00375225
0.00399736
0.00424782
0.00450388
0.00476583
0.00503393
0.00530845
0.00558975
0.00587837
0.00617525
0.00648219
0.00680248
0.00714208
0.00751143
0.00792815
0.00842096
0.0090348
0.00983675
0.0109213
0.0124114
0.0144505
0.0171783
0.020692
0.0250049
0.030018
0.0354908
0.0409167
0.0450268
0.000146744
0.000123795
0.000131229
0.000179083
0.000260275
0.000368798
0.000499608
0.000648281
0.000811092
0.00098502
0.0011677
0.00135737
0.00155282
0.00175325
0.00195812
0.00216715
0.00238017
0.0025971
0.00281794
0.00304276
0.00327165
0.00350478
0.00374233
0.00398455
0.00423172
0.00448416
0.00474225
0.00500639
0.00527706
0.00555485
0.0058406
0.00613563
0.0064422
0.00676424
0.00710863
0.00748723
0.0079199
0.0084388
0.00909403
0.00995988
0.0111401
0.0127682
0.0149975
0.0179752
0.0218047
0.0265135
0.0320472
0.0382861
0.0450268
0.0515898
)
;

boundaryField
{
    bottomWall
    {
        type            nutkWallFunction;
        Cmu             0.09;
        kappa           0.41;
        E               9.8;
        value           uniform 0;
    }
    leftWall
    {
        type            nutkWallFunction;
        Cmu             0.09;
        kappa           0.41;
        E               9.8;
        value           uniform 0;
    }
    topSym
    {
        type            symmetryPlane;
    }
    rightSym
    {
        type            symmetryPlane;
    }
    inlet
    {
        type            cyclic;
    }
    outlet
    {
        type            cyclic;
    }
}


// ************************************************************************* //
