/*--------------------------------*- C++ -*----------------------------------*\
| =========                 |                                                 |
| \\      /  F ield         | OpenFOAM: The Open Source CFD Toolbox           |
|  \\    /   O peration     | Version:  v1912                                 |
|   \\  /    A nd           | Website:  www.openfoam.com                      |
|    \\/     M anipulation  |                                                 |
\*---------------------------------------------------------------------------*/
FoamFile
{
    version     2.0;
    format      ascii;
    class       volScalarField;
    location    "3000";
    object      p;
}
// * * * * * * * * * * * * * * * * * * * * * * * * * * * * * * * * * * * * * //

dimensions      [0 2 -2 0 0 0 0];


internalField   nonuniform List<scalar> 
2500
(
-3.62723e-12
7.23557e-08
2.70085e-07
6.05741e-07
1.14367e-06
2.00916e-06
3.35651e-06
5.32251e-06
7.98131e-06
1.13268e-05
1.52806e-05
1.97146e-05
2.44768e-05
2.94144e-05
3.43888e-05
3.9284e-05
4.40084e-05
4.84929e-05
5.26875e-05
5.65556e-05
6.00695e-05
6.32062e-05
6.59432e-05
6.82558e-05
7.01153e-05
7.14875e-05
7.23322e-05
7.26032e-05
7.22493e-05
7.1215e-05
6.94426e-05
6.68745e-05
6.34561e-05
5.91392e-05
5.38864e-05
4.76756e-05
4.05064e-05
3.24052e-05
2.3429e-05
1.36706e-05
3.27256e-06
-7.57816e-06
-1.86354e-05
-2.96157e-05
-4.01715e-05
-4.99554e-05
-5.85511e-05
-6.56194e-05
-7.0707e-05
-7.35012e-05
7.23557e-08
9.91297e-08
2.70528e-07
5.73338e-07
1.05048e-06
1.81826e-06
3.02646e-06
4.80903e-06
7.24248e-06
1.03313e-05
1.40132e-05
1.81763e-05
2.26812e-05
2.7382e-05
3.21418e-05
3.68431e-05
4.1391e-05
4.57126e-05
4.97546e-05
5.3478e-05
5.68535e-05
5.98573e-05
6.24669e-05
6.4658e-05
6.64025e-05
6.76672e-05
6.84127e-05
6.85938e-05
6.81599e-05
6.70565e-05
6.52265e-05
6.26128e-05
5.9161e-05
5.48231e-05
4.95617e-05
4.33546e-05
3.62007e-05
2.8126e-05
1.91865e-05
9.47371e-06
-8.71528e-07
-1.1664e-05
-2.26597e-05
-3.35774e-05
-4.40725e-05
-5.37997e-05
-6.23454e-05
-6.93724e-05
-7.44292e-05
-7.72335e-05
2.70085e-07
2.70528e-07
5.04703e-07
9.41752e-07
1.62289e-06
2.67775e-06
4.28282e-06
6.60149e-06
9.73031e-06
1.36864e-05
1.84159e-05
2.38102e-05
2.97274e-05
3.60135e-05
4.25192e-05
4.91119e-05
5.56811e-05
6.21397e-05
6.84213e-05
7.44761e-05
8.0266e-05
8.57601e-05
9.09295e-05
9.57449e-05
0.000100173
0.000104177
0.000107711
0.000110726
0.000113166
0.000114969
0.000116072
0.000116411
0.000115922
0.000114548
0.000112242
0.000108968
0.000104714
9.94913e-05
9.334e-05
8.63347e-05
7.85979e-05
7.02946e-05
6.1647e-05
5.29124e-05
4.44097e-05
3.64545e-05
2.94271e-05
2.36245e-05
1.94501e-05
1.71113e-05
6.05741e-07
5.73338e-07
9.41752e-07
1.73842e-06
3.11129e-06
5.28468e-06
8.49746e-06
1.29578e-05
1.87811e-05
2.59772e-05
3.44654e-05
4.40985e-05
5.46905e-05
6.60408e-05
7.79544e-05
9.02544e-05
0.000102789
0.000115434
0.00012809
0.000140678
0.000153137
0.000165412
0.000177458
0.000189229
0.000200675
0.000211747
0.000222385
0.000232527
0.000242101
0.000251034
0.000259247
0.000266658
0.000273187
0.000278758
0.000283302
0.000286764
0.000289102
0.000290304
0.00029038
0.000289373
0.000287371
0.000284503
0.000280949
0.000276925
0.000272699
0.000268531
0.000264738
0.000261536
0.000259231
0.000257903
1.14367e-06
1.05048e-06
1.62289e-06
3.11129e-06
6.06713e-06
1.10607e-05
1.84017e-05
2.81726e-05
4.03178e-05
5.46968e-05
7.11019e-05
8.92777e-05
0.000108946
0.000129828
0.000151658
0.000174194
0.000197224
0.000220567
0.000244068
0.000267602
0.000291061
0.000314356
0.000337405
0.000360133
0.000382468
0.000404336
0.000425661
0.00044636
0.000466349
0.000485536
0.000503827
0.000521128
0.00053734
0.000552371
0.000566134
0.000578552
0.000589562
0.000599126
0.000607228
0.000613881
0.000619142
0.000623103
0.000625906
0.000627719
0.000628764
0.00062924
0.000629393
0.000629352
0.000629312
0.000629235
2.00916e-06
1.81826e-06
2.67775e-06
5.28468e-06
1.10607e-05
2.13685e-05
3.65257e-05
5.59426e-05
7.88237e-05
0.000104546
0.000132645
0.000162739
0.000194494
0.000227609
0.000261806
0.000296826
0.000332429
0.000368394
0.000404522
0.000440634
0.000476571
0.000512192
0.000547371
0.000581994
0.000615956
0.000649156
0.000681496
0.000712881
0.000743212
0.000772394
0.000800326
0.000826909
0.000852047
0.000875645
0.000897613
0.000917874
0.000936362
0.00095303
0.000967859
0.000980853
0.000992056
0.00100154
0.00100944
0.0010159
0.00102109
0.00102521
0.00102843
0.00103083
0.00103254
0.00103343
3.35651e-06
3.02646e-06
4.28282e-06
8.49746e-06
1.84017e-05
3.65257e-05
6.29693e-05
9.56398e-05
0.000132201
0.000171176
0.000211822
0.000253757
0.000296766
0.000340702
0.000385435
0.000430821
0.000476698
0.000522885
0.000569185
0.000615399
0.000661327
0.000706779
0.000751577
0.000795556
0.000838565
0.000880466
0.00092113
0.000960441
0.000998287
0.00103457
0.00106918
0.00110204
0.00113305
0.00116213
0.00118922
0.00121424
0.00123715
0.00125791
0.00127653
0.00129302
0.00130744
0.00131986
0.00133042
0.00133925
0.00134656
0.00135249
0.00135723
0.00136084
0.00136338
0.00136473
5.32251e-06
4.80903e-06
6.60149e-06
1.29578e-05
2.81726e-05
5.59426e-05
9.56398e-05
0.000142887
0.000193257
0.000244314
0.000295198
0.000345764
0.000396126
0.000446473
0.000496975
0.000547747
0.000598827
0.000650177
0.000701693
0.000753217
0.000804556
0.000855495
0.000905812
0.000955285
0.0010037
0.00105086
0.00109659
0.00114072
0.0011831
0.0012236
0.00126211
0.00129852
0.00133276
0.00136475
0.00139443
0.00142176
0.00144671
0.00146927
0.00148946
0.00150733
0.00152295
0.00153641
0.00154787
0.00155748
0.00156544
0.00157191
0.00157708
0.00158101
0.00158378
0.00158522
7.98131e-06
7.24248e-06
9.73031e-06
1.87811e-05
4.03178e-05
7.88237e-05
0.000132201
0.000193257
0.000255456
0.000315681
0.000373267
0.000428524
0.000482016
0.000534321
0.000585951
0.000637315
0.000688708
0.000740308
0.000792183
0.000844302
0.000896552
0.000948757
0.00100069
0.00105212
0.00110275
0.00115235
0.00120064
0.00124738
0.00129237
0.0013354
0.0013763
0.00141494
0.00145119
0.00148497
0.00151622
0.00154488
0.00157095
0.00159443
0.00161536
0.00163381
0.00164987
0.00166367
0.00167537
0.00168514
0.0016932
0.00169972
0.0017049
0.00170882
0.00171157
0.00171297
1.13268e-05
1.03313e-05
1.36864e-05
2.59772e-05
5.46968e-05
0.000104546
0.000171176
0.000244314
0.000315681
0.000382011
0.00044319
0.00050013
0.000553867
0.000605318
0.000655254
0.000704304
0.000752969
0.000801631
0.00085055
0.000899875
0.000949645
0.000999802
0.00105021
0.00110065
0.00115087
0.00120057
0.00124945
0.00129719
0.00134347
0.00138802
0.00143058
0.00147091
0.00150884
0.00154421
0.00157691
0.00160687
0.00163406
0.00165848
0.00168018
0.00169923
0.00171576
0.0017299
0.00174183
0.00175174
0.00175987
0.00176641
0.00177157
0.00177544
0.00177813
0.00177951
1.52806e-05
1.40132e-05
1.84159e-05
3.44654e-05
7.11019e-05
0.000132645
0.000211822
0.000295198
0.000373267
0.00044319
0.000505719
0.000562464
0.000614908
0.000664234
0.000711366
0.000757035
0.000801838
0.000846266
0.000890718
0.000935499
0.000980817
0.00102678
0.0010734
0.00112058
0.00116817
0.00121591
0.00126351
0.00131063
0.00135689
0.00140195
0.00144542
0.00148699
0.00152636
0.00156328
0.00159756
0.00162904
0.00165765
0.00168335
0.00170616
0.00172616
0.00174346
0.00175822
0.00177063
0.00178089
0.00178927
0.00179595
0.0018012
0.0018051
0.0018078
0.00180917
1.97146e-05
1.81763e-05
2.38102e-05
4.40985e-05
8.92777e-05
0.000162739
0.000253757
0.000345764
0.000428524
0.00050013
0.000562464
0.000617883
0.000668278
0.000715042
0.000759184
0.000801453
0.000842439
0.00088264
0.00092249
0.000962371
0.00100261
0.00104345
0.00108507
0.00112755
0.00117088
0.00121494
0.00125953
0.00130438
0.00134913
0.00139339
0.00143674
0.00147877
0.00151907
0.00155727
0.00159305
0.00162616
0.00165642
0.0016837
0.00170798
0.0017293
0.00174775
0.00176348
0.00177668
0.00178757
0.00179642
0.00180345
0.00180893
0.00181297
0.00181575
0.00181715
2.44768e-05
2.26812e-05
2.97274e-05
5.46905e-05
0.000108946
0.000194494
0.000296766
0.000396126
0.000482016
0.000553867
0.000614908
0.000668278
0.000716232
0.000760319
0.000801596
0.000840795
0.000878453
0.000915003
0.000950833
0.000986307
0.00102178
0.00105758
0.00109398
0.00113122
0.00116945
0.00120873
0.001249
0.00129014
0.00133189
0.00137393
0.00141586
0.00145722
0.00149754
0.00153636
0.00157323
0.00160777
0.00163966
0.00166867
0.00169466
0.0017176
0.00173752
0.00175455
0.00176885
0.00178064
0.00179021
0.00179779
0.00180366
0.00180797
0.00181091
0.00181238
2.94144e-05
2.7382e-05
3.60135e-05
6.60408e-05
0.000129828
0.000227609
0.000340702
0.000446473
0.000534321
0.000605318
0.000664234
0.000715042
0.000760319
0.000801708
0.000840283
0.000876749
0.000911583
0.000945134
0.000977699
0.00100957
0.00104105
0.00107246
0.00110413
0.00113635
0.00116941
0.0012035
0.00123877
0.00127524
0.00131283
0.00135136
0.00139052
0.00142992
0.0014691
0.00150755
0.00154473
0.00158015
0.00161335
0.00164396
0.00167168
0.00169639
0.00171802
0.0017366
0.00175227
0.00176524
0.00177575
0.00178408
0.0017905
0.00179519
0.00179837
0.00179997
3.43888e-05
3.21418e-05
4.25192e-05
7.79544e-05
0.000151658
0.000261806
0.000385435
0.000496975
0.000585951
0.000655254
0.000711366
0.000759184
0.000801596
0.000840283
0.000876288
0.000910273
0.000942658
0.000973722
0.00100367
0.0010327
0.00106103
0.0010889
0.00111662
0.00114449
0.00117285
0.00120199
0.00123218
0.00126361
0.00129638
0.00133048
0.00136577
0.001402
0.00143879
0.00147569
0.00151214
0.00154759
0.00158146
0.00161324
0.00164248
0.0016689
0.0016923
0.0017126
0.00172986
0.00174421
0.0017559
0.00176515
0.00177229
0.00177749
0.00178099
0.00178275
3.9284e-05
3.68431e-05
4.91119e-05
9.02544e-05
0.000174194
0.000296826
0.000430821
0.000547747
0.000637315
0.000704304
0.000757035
0.000801453
0.000840795
0.000876749
0.000910273
0.000941949
0.000972138
0.00100106
0.00102885
0.00105561
0.00108148
0.0011066
0.0011312
0.00115554
0.00117994
0.00120473
0.00123023
0.00125676
0.00128456
0.00131379
0.00134451
0.00137664
0.00140997
0.00144415
0.00147873
0.00151315
0.00154679
0.00157904
0.00160932
0.00163716
0.00166222
0.00168427
0.00170322
0.00171913
0.00173216
0.00174253
0.00175053
0.00175636
0.00176028
0.00176224
4.40084e-05
4.1391e-05
5.56811e-05
0.000102789
0.000197224
0.000332429
0.000476698
0.000598827
0.000688708
0.000752969
0.000801838
0.000842439
0.000878453
0.000911583
0.000942658
0.000972138
0.0010003
0.0010273
0.00105322
0.00107811
0.001102
0.00112498
0.00114716
0.00116874
0.00118996
0.00121113
0.00123259
0.00125471
0.00127781
0.00130219
0.00132808
0.00135557
0.00138465
0.00141517
0.0014468
0.00147908
0.00151146
0.00154327
0.00157385
0.00160259
0.00162899
0.00165263
0.00167326
0.0016908
0.00170531
0.00171695
0.00172596
0.00173254
0.00173696
0.00173918
4.84929e-05
4.57126e-05
6.21397e-05
0.000115434
0.000220567
0.000368394
0.000522885
0.000650177
0.000740308
0.000801631
0.000846266
0.00088264
0.000915003
0.000945134
0.000973722
0.00100106
0.0010273
0.00105252
0.00107675
0.0011
0.00112225
0.00114349
0.00116378
0.0011832
0.00120193
0.00122021
0.00123835
0.0012567
0.00127562
0.0012955
0.00131666
0.00133938
0.00136382
0.00139001
0.00141783
0.00144699
0.00147705
0.00150741
0.0015374
0.0015663
0.0015935
0.00161838
0.00164053
0.00165967
0.00167572
0.00168873
0.00169888
0.00170633
0.00171134
0.00171385
5.26875e-05
4.97546e-05
6.84213e-05
0.00012809
0.000244068
0.000404522
0.000569185
0.000701693
0.000792183
0.00085055
0.000890718
0.00092249
0.000950833
0.000977699
0.00100367
0.00102885
0.00105322
0.00107675
0.00109942
0.00112117
0.00114195
0.00116172
0.00118045
0.00119816
0.00121494
0.00123095
0.00124642
0.00126167
0.00127705
0.00129295
0.00130978
0.00132791
0.00134764
0.0013692
0.00139265
0.00141792
0.00144474
0.00147265
0.00150107
0.00152926
0.00155651
0.00158211
0.00160543
0.00162599
0.00164354
0.00165796
0.00166933
0.00167775
0.00168343
0.00168629
5.65556e-05
5.3478e-05
7.44761e-05
0.000140678
0.000267602
0.000440634
0.000615399
0.000753217
0.000844302
0.000899875
0.000935499
0.000962371
0.000986307
0.00100957
0.0010327
0.00105561
0.00107811
0.0011
0.00112117
0.00114151
0.00116094
0.00117938
0.00119676
0.00121305
0.00122825
0.00124245
0.00125581
0.00126856
0.00128101
0.00129354
0.00130655
0.00132048
0.00133573
0.00135265
0.0013715
0.00139239
0.00141526
0.00143987
0.00146576
0.00149229
0.00151876
0.00154436
0.00156832
0.00158997
0.00160885
0.00162463
0.00163726
0.00164671
0.00165313
0.00165638
6.00695e-05
5.68535e-05
8.0266e-05
0.000153137
0.000291061
0.000476571
0.000661327
0.000804556
0.000896552
0.000949645
0.000980817
0.00100261
0.00102178
0.00104105
0.00106103
0.00108148
0.001102
0.00112225
0.00114195
0.00116094
0.00117909
0.00119628
0.00121243
0.00122745
0.00124131
0.00125403
0.00126567
0.00127641
0.00128649
0.00129621
0.00130598
0.00131621
0.00132737
0.00133989
0.00135416
0.00137047
0.00138896
0.00140961
0.00143215
0.00145613
0.00148089
0.00150566
0.00152959
0.00155183
0.00157171
0.0015887
0.00160254
0.00161304
0.00162025
0.00162392
6.32062e-05
5.98573e-05
8.57601e-05
0.000165412
0.000314356
0.000512192
0.000706779
0.000855495
0.000948757
0.000999802
0.00102678
0.00104345
0.00105758
0.00107246
0.0010889
0.0011066
0.00112498
0.00114349
0.00116172
0.00117938
0.00119628
0.00121227
0.00122724
0.00124108
0.00125374
0.00126516
0.00127537
0.00128446
0.00129259
0.00130001
0.00130705
0.00131412
0.00132167
0.00133017
0.0013401
0.00135187
0.00136581
0.00138209
0.00140067
0.0014213
0.00144348
0.00146655
0.00148965
0.00151183
0.00153225
0.00155016
0.00156505
0.00157656
0.00158455
0.00158866
6.59432e-05
6.24669e-05
9.09295e-05
0.000177458
0.000337405
0.000547371
0.000751577
0.000905812
0.00100069
0.00105021
0.0010734
0.00108507
0.00109398
0.00110413
0.00111662
0.0011312
0.00114716
0.00116378
0.00118045
0.00119676
0.00121243
0.00122724
0.00124105
0.00125376
0.00126526
0.00127549
0.00128443
0.00129211
0.00129861
0.00130411
0.00130889
0.00131327
0.0013177
0.00132264
0.00132859
0.00133606
0.0013455
0.00135724
0.00137147
0.00138814
0.00140699
0.0014275
0.00144892
0.00147028
0.00149063
0.00150901
0.0015247
0.00153707
0.0015458
0.00155034
6.82558e-05
6.4658e-05
9.57449e-05
0.000189229
0.000360133
0.000581994
0.000795556
0.000955285
0.00105212
0.00110065
0.00112058
0.00112755
0.00113122
0.00113635
0.00114449
0.00115554
0.00116874
0.0011832
0.00119816
0.00121305
0.00122745
0.00124108
0.00125376
0.00126533
0.0012757
0.00128479
0.00129253
0.00129892
0.00130399
0.00130786
0.00131071
0.00131283
0.00131459
0.00131641
0.00131882
0.00132233
0.00132747
0.00133471
0.00134442
0.00135676
0.00137167
0.00138888
0.00140778
0.00142752
0.00144706
0.00146536
0.00148144
0.00149443
0.00150377
0.00150869
7.01153e-05
6.64025e-05
0.000100173
0.000200675
0.000382468
0.000615956
0.000838565
0.0010037
0.00110275
0.00115087
0.00116817
0.00117088
0.00116945
0.00116941
0.00117285
0.00117994
0.00118996
0.00120193
0.00121494
0.00122825
0.00124131
0.00125374
0.00126526
0.0012757
0.00128494
0.00129287
0.00129944
0.00130459
0.00130835
0.00131075
0.00131193
0.0013121
0.00131155
0.00131068
0.00130995
0.00130989
0.00131106
0.00131399
0.00131919
0.00132701
0.0013376
0.0013509
0.00136655
0.00138383
0.0014018
0.00141931
0.00143526
0.00144852
0.00145826
0.00146346
7.14875e-05
6.76672e-05
0.000104177
0.000211747
0.000404336
0.000649156
0.000880466
0.00105086
0.00115235
0.00120057
0.00121591
0.00121494
0.00120873
0.0012035
0.00120199
0.00120473
0.00121113
0.00122021
0.00123095
0.00124245
0.00125403
0.00126516
0.00127549
0.00128479
0.00129287
0.00129964
0.00130501
0.00130894
0.00131141
0.00131243
0.00131207
0.0013105
0.00130794
0.00130471
0.00130123
0.00129798
0.00129552
0.00129444
0.00129529
0.00129858
0.00130464
0.00131361
0.00132538
0.00133947
0.00135505
0.00137104
0.00138621
0.00139927
0.00140911
0.00141445
7.23322e-05
6.84127e-05
0.000107711
0.000222385
0.000425661
0.000681496
0.00092113
0.00109659
0.00120064
0.00124945
0.00126351
0.00125953
0.001249
0.00123877
0.00123218
0.00123023
0.00123259
0.00123835
0.00124642
0.00125581
0.00126567
0.00127537
0.00128443
0.00129253
0.00129944
0.00130501
0.00130917
0.00131184
0.001313
0.00131265
0.00131083
0.00130763
0.00130324
0.0012979
0.00129197
0.00128587
0.00128014
0.00127535
0.0012721
0.00127097
0.00127245
0.00127685
0.00128431
0.00129456
0.00130701
0.00132069
0.00133438
0.00134665
0.00135619
0.00136147
7.26032e-05
6.85938e-05
0.000110726
0.000232527
0.00044636
0.000712881
0.000960441
0.00114072
0.00124738
0.00129719
0.00131063
0.00130438
0.00129014
0.00127524
0.00126361
0.00125676
0.00125471
0.0012567
0.00126167
0.00126856
0.00127641
0.00128446
0.00129211
0.00129892
0.00130459
0.00130894
0.00131184
0.00131322
0.00131303
0.00131128
0.00130798
0.00130319
0.00129706
0.00128976
0.0012816
0.00127293
0.00126423
0.00125604
0.00124896
0.00124362
0.00124059
0.00124033
0.00124317
0.0012491
0.00125776
0.00126838
0.00127983
0.00129066
0.00129942
0.00130437
7.22493e-05
6.81599e-05
0.000113166
0.000242101
0.000466349
0.000743212
0.000998287
0.0011831
0.00129237
0.00134347
0.00135689
0.00134913
0.00133189
0.00131283
0.00129638
0.00128456
0.00127781
0.00127562
0.00127705
0.00128101
0.00128649
0.00129259
0.00129861
0.00130399
0.00130835
0.00131141
0.001313
0.00131303
0.00131145
0.00130823
0.0013034
0.00129701
0.00128914
0.00127996
0.00126968
0.00125861
0.00124717
0.00123585
0.00122521
0.00121589
0.0012085
0.00120361
0.00120167
0.00120293
0.00120727
0.00121414
0.00122262
0.00123132
0.00123875
0.00124307
7.1215e-05
6.70565e-05
0.000114969
0.000251034
0.000485536
0.000772394
0.00103457
0.0012236
0.0013354
0.00138802
0.00140195
0.00139339
0.00137393
0.00135136
0.00133048
0.00131379
0.00130219
0.0012955
0.00129295
0.00129354
0.00129621
0.00130001
0.00130411
0.00130786
0.00131075
0.00131243
0.00131265
0.00131128
0.00130823
0.00130349
0.00129706
0.00128898
0.00127934
0.00126824
0.00125589
0.00124252
0.00122848
0.00121421
0.00120023
0.00118714
0.00117556
0.00116612
0.00115938
0.00115575
0.00115536
0.00115791
0.00116272
0.0011686
0.00117412
0.00117748
6.94426e-05
6.52265e-05
0.000116072
0.000259247
0.000503827
0.000800326
0.00106918
0.00126211
0.0013763
0.00143058
0.00144542
0.00143674
0.00141586
0.00139052
0.00136577
0.00134451
0.00132808
0.00131666
0.00130978
0.00130655
0.00130598
0.00130705
0.00130889
0.00131071
0.00131193
0.00131207
0.00131083
0.00130798
0.0013034
0.00129706
0.00128895
0.0012791
0.00126758
0.00125451
0.00124003
0.00122435
0.00120777
0.00119066
0.00117348
0.00115678
0.00114117
0.00112729
0.00111576
0.00110713
0.00110171
0.00109948
0.00110003
0.00110242
0.00110547
0.00110752
6.68745e-05
6.26128e-05
0.000116411
0.000266658
0.000521128
0.000826909
0.00110204
0.00129852
0.00141494
0.00147091
0.00148699
0.00147877
0.00145722
0.00142992
0.001402
0.00137664
0.00135557
0.00133938
0.00132791
0.00132048
0.00131621
0.00131412
0.00131327
0.00131283
0.0013121
0.0013105
0.00130763
0.00130319
0.00129701
0.00128898
0.0012791
0.00126737
0.00125387
0.0012387
0.001222
0.00120394
0.00118478
0.00116483
0.0011445
0.00112427
0.00110474
0.00108651
0.00107023
0.00105653
0.00104589
0.00103851
0.00103428
0.00103261
0.00103264
0.00103303
6.34561e-05
5.9161e-05
0.000115922
0.000273187
0.00053734
0.000852047
0.00113305
0.00133276
0.00145119
0.00150884
0.00152636
0.00151907
0.00149754
0.0014691
0.00143879
0.00140997
0.00138465
0.00136382
0.00134764
0.00133573
0.00132737
0.00132167
0.0013177
0.00131459
0.00131155
0.00130794
0.00130324
0.00129706
0.00128914
0.00127934
0.00126758
0.00125387
0.00123827
0.00122087
0.00120179
0.00118121
0.00115935
0.00113647
0.00111294
0.00108918
0.00106573
0.00104318
0.00102216
0.00100333
0.000987302
0.000974494
0.00096507
0.00095882
0.00095533
0.000953752
5.91392e-05
5.48231e-05
0.000114548
0.000278758
0.000552371
0.000875645
0.00116213
0.00136475
0.00148497
0.00154421
0.00156328
0.00155727
0.00153636
0.00150755
0.00147569
0.00144415
0.00141517
0.00139001
0.0013692
0.00135265
0.00133989
0.00133017
0.00132264
0.00131641
0.00131068
0.00130471
0.0012979
0.00128976
0.00127996
0.00126824
0.00125451
0.0012387
0.00122087
0.00120108
0.00117946
0.00115618
0.00113142
0.00110545
0.00107857
0.00105117
0.00102371
0.000996752
0.000970911
0.000946851
0.000925272
0.000906761
0.000891762
0.000880478
0.000873028
0.000869184
5.38864e-05
4.95617e-05
0.000112242
0.000283302
0.000566134
0.000897613
0.00118922
0.00139443
0.00151622
0.00157691
0.00159756
0.00159305
0.00157323
0.00154473
0.00151214
0.00147873
0.0014468
0.00141783
0.00139265
0.0013715
0.00135416
0.0013401
0.00132859
0.00131882
0.00130995
0.00130123
0.00129197
0.0012816
0.00126968
0.00125589
0.00124003
0.001222
0.00120179
0.00117946
0.00115512
0.00112892
0.00110105
0.00107174
0.00104127
0.00100998
0.000978305
0.00094674
0.000915877
0.000886377
0.000858991
0.000834458
0.000813496
0.000796739
0.000784913
0.000778531
4.76756e-05
4.33546e-05
0.000108968
0.000286764
0.000578552
0.000917874
0.00121424
0.00142176
0.00154488
0.00160687
0.00162904
0.00162616
0.00160777
0.00158015
0.00154759
0.00151315
0.00147908
0.00144699
0.00141792
0.00139239
0.00137047
0.00135187
0.00133606
0.00132233
0.00130989
0.00129798
0.00128587
0.00127293
0.00125861
0.00124252
0.00122435
0.00120394
0.00118121
0.00115618
0.00112892
0.00109957
0.00106832
0.00103537
0.00100098
0.000965478
0.000929231
0.000892704
0.000856452
0.000821133
0.000787526
0.000756526
0.000729125
0.000706417
0.000689802
0.000680625
4.05064e-05
3.62007e-05
0.000104714
0.000289102
0.000589562
0.000936362
0.00123715
0.00144671
0.00157095
0.00163406
0.00165765
0.00165642
0.00163966
0.00161335
0.00158146
0.00154679
0.00151146
0.00147705
0.00144474
0.00141526
0.00138896
0.00136581
0.0013455
0.00132747
0.00131106
0.00129552
0.00128014
0.00126423
0.00124717
0.00122848
0.00120777
0.00118478
0.00115935
0.00113142
0.00110105
0.00106832
0.00103339
0.000996455
0.000957763
0.000917591
0.000876281
0.000834254
0.000792033
0.000750274
0.000709802
0.000671682
0.00063722
0.000608019
0.000586211
0.000574013
3.24052e-05
2.8126e-05
9.94913e-05
0.000290304
0.000599126
0.00095303
0.00125791
0.00146927
0.00159443
0.00165848
0.00168335
0.0016837
0.00166867
0.00164396
0.00161324
0.00157904
0.00154327
0.00150741
0.00147265
0.00143987
0.00140961
0.00138209
0.00135724
0.00133471
0.00131399
0.00129444
0.00127535
0.00125604
0.00123585
0.00121421
0.00119066
0.00116483
0.00113647
0.00110545
0.00107174
0.00103537
0.000996455
0.000955167
0.000911705
0.000866316
0.000819298
0.000771028
0.000722001
0.000672889
0.000624617
0.000578477
0.000536189
0.000499955
0.000472665
0.000457336
2.3429e-05
1.91865e-05
9.334e-05
0.00029038
0.000607228
0.000967859
0.00127653
0.00148946
0.00161536
0.00168018
0.00170616
0.00170798
0.00169466
0.00167168
0.00164248
0.00160932
0.00157385
0.0015374
0.00150107
0.00146576
0.00143215
0.00140067
0.00137147
0.00134442
0.00131919
0.00129529
0.0012721
0.00124896
0.00122521
0.00120023
0.00117348
0.0011445
0.00111294
0.00107857
0.00104127
0.00100098
0.000957763
0.000911705
0.000862954
0.000811695
0.000758164
0.000702683
0.00064573
0.000588039
0.000530737
0.000475502
0.000424658
0.000381123
0.000348474
0.000330224
1.36706e-05
9.47371e-06
8.63347e-05
0.000289373
0.000613881
0.000980853
0.00129302
0.00150733
0.00163381
0.00169923
0.00172616
0.0017293
0.0017176
0.00169639
0.0016689
0.00163716
0.00160259
0.0015663
0.00152926
0.00149229
0.00145613
0.0014213
0.00138814
0.00135676
0.00132701
0.00129858
0.00127097
0.00124362
0.00121589
0.00118714
0.00115678
0.00112427
0.00108918
0.00105117
0.00100998
0.000965478
0.000917591
0.000866316
0.000811695
0.00075381
0.000692798
0.000628914
0.000562645
0.000494892
0.000427198
0.000361931
0.000302299
0.000252013
0.000215031
0.000194682
3.27256e-06
-8.71526e-07
7.85979e-05
0.000287371
0.000619142
0.000992056
0.00130744
0.00152295
0.00164987
0.00171576
0.00174346
0.00174775
0.00173752
0.00171802
0.0016923
0.00166222
0.00162899
0.0015935
0.00155651
0.00151876
0.00148089
0.00144348
0.00140699
0.00137167
0.0013376
0.00130464
0.00127245
0.00124059
0.0012085
0.00117556
0.00114117
0.00110474
0.00106573
0.00102371
0.000978305
0.000929231
0.000876281
0.000819298
0.000758164
0.000692798
0.000623197
0.000549541
0.000472411
0.000393103
0.000313957
0.000238496
0.000171103
0.000116133
7.72132e-05
5.64096e-05
-7.57816e-06
-1.1664e-05
7.02946e-05
0.000284503
0.000623103
0.00100154
0.00131986
0.00153641
0.00166367
0.0017299
0.00175822
0.00176348
0.00175455
0.0017366
0.0017126
0.00168427
0.00165263
0.00161838
0.00158211
0.00154436
0.00150566
0.00146655
0.0014275
0.00138888
0.0013509
0.00131361
0.00127685
0.00124033
0.00120361
0.00116612
0.00112729
0.00108651
0.00104318
0.000996752
0.00094674
0.000892704
0.000834254
0.000771028
0.000702683
0.000628914
0.000549541
0.000464722
0.000375339
0.000283496
0.000192911
0.000108759
3.66388e-05
-1.90868e-05
-5.62755e-05
-7.52665e-05
-1.86354e-05
-2.26597e-05
6.1647e-05
0.000280949
0.000625906
0.00100944
0.00133042
0.00154787
0.00167537
0.00174183
0.00177063
0.00177668
0.00176885
0.00175227
0.00172986
0.00170322
0.00167326
0.00164053
0.00160543
0.00156832
0.00152959
0.00148965
0.00144892
0.00140778
0.00136655
0.00132538
0.00128431
0.00124317
0.00120167
0.00115938
0.00111576
0.00107023
0.00102216
0.000970911
0.000915877
0.000856452
0.000792033
0.000722001
0.00064573
0.000562645
0.000472411
0.000375339
0.000273013
0.000168975
6.89416e-05
-2.00719e-05
-9.18525e-05
-0.000143259
-0.000174834
-0.000189888
-2.96157e-05
-3.35774e-05
5.29124e-05
0.000276925
0.000627719
0.0010159
0.00133925
0.00155748
0.00168514
0.00175174
0.00178089
0.00178757
0.00178064
0.00176524
0.00174421
0.00171913
0.0016908
0.00165967
0.00162599
0.00158997
0.00155183
0.00151183
0.00147028
0.00142752
0.00138383
0.00133947
0.00129456
0.0012491
0.00120293
0.00115575
0.00110713
0.00105653
0.00100333
0.000946851
0.000886377
0.000821133
0.000750274
0.000672889
0.000588039
0.000494892
0.000393103
0.000283496
0.000168975
5.5191e-05
-4.98648e-05
-0.000137946
-0.000203618
-0.000246336
-0.000269845
-0.000279928
-4.01715e-05
-4.40725e-05
4.44097e-05
0.000272699
0.000628764
0.00102109
0.00134656
0.00156544
0.0016932
0.00175987
0.00178927
0.00179642
0.00179021
0.00177575
0.0017559
0.00173216
0.00170531
0.00167572
0.00164354
0.00160885
0.00157171
0.00153225
0.00149063
0.00144706
0.0014018
0.00135505
0.00130701
0.00125776
0.00120727
0.00115536
0.00110171
0.00104589
0.000987302
0.000925272
0.000858991
0.000787526
0.000709802
0.000624617
0.000530737
0.000427198
0.000313957
0.000192911
6.89416e-05
-4.98648e-05
-0.000153821
-0.000234982
-0.000290341
-0.000322597
-0.000338043
-0.000343597
-4.99554e-05
-5.37997e-05
3.64545e-05
0.000268531
0.00062924
0.00102521
0.00135249
0.00157191
0.00169972
0.00176641
0.00179595
0.00180345
0.00179779
0.00178408
0.00176515
0.00174253
0.00171695
0.00168873
0.00165796
0.00162463
0.0015887
0.00155016
0.00150901
0.00146536
0.00141931
0.00137104
0.00132069
0.00126838
0.00121414
0.00115791
0.00109948
0.00103851
0.000974494
0.000906761
0.000834458
0.000756526
0.000671682
0.000578477
0.000475502
0.000361931
0.000238496
0.000108759
-2.00719e-05
-0.000137946
-0.000234982
-0.000305359
-0.000349399
-0.000372456
-0.000381889
-0.000384363
-5.85511e-05
-6.23454e-05
2.94271e-05
0.000264738
0.000629393
0.00102843
0.00135723
0.00157708
0.0017049
0.00177157
0.0018012
0.00180893
0.00180366
0.0017905
0.00177229
0.00175053
0.00172596
0.00169888
0.00166933
0.00163726
0.00160254
0.00156505
0.0015247
0.00148144
0.00143526
0.00138621
0.00133438
0.00127983
0.00122262
0.00116272
0.00110003
0.00103428
0.00096507
0.000891762
0.000813496
0.000729125
0.00063722
0.000536189
0.000424658
0.000302299
0.000171103
3.66388e-05
-9.18525e-05
-0.000203618
-0.000290341
-0.000349399
-0.000384071
-0.00040098
-0.000407135
-0.000408144
-6.56194e-05
-6.93724e-05
2.36245e-05
0.000261536
0.000629352
0.00103083
0.00136084
0.00158101
0.00170882
0.00177544
0.0018051
0.00181297
0.00180797
0.00179519
0.00177749
0.00175636
0.00173254
0.00170633
0.00167775
0.00164671
0.00161304
0.00157656
0.00153707
0.00149443
0.00144852
0.00139927
0.00134665
0.00129066
0.00123132
0.0011686
0.00110242
0.00103261
0.00095882
0.000880478
0.000796739
0.000706417
0.000608019
0.000499955
0.000381123
0.000252013
0.000116133
-1.90868e-05
-0.000143259
-0.000246336
-0.000322597
-0.000372456
-0.00040098
-0.00041482
-0.000419926
-0.000420689
-7.0707e-05
-7.44292e-05
1.94501e-05
0.000259231
0.000629312
0.00103254
0.00136338
0.00158378
0.00171157
0.00177813
0.0018078
0.00181575
0.00181091
0.00179837
0.00178099
0.00176028
0.00173696
0.00171134
0.00168343
0.00165313
0.00162025
0.00158455
0.0015458
0.00150377
0.00145826
0.00140911
0.00135619
0.00129942
0.00123875
0.00117412
0.00110547
0.00103264
0.00095533
0.000873028
0.000784913
0.000689802
0.000586211
0.000472665
0.000348474
0.000215031
7.72132e-05
-5.62755e-05
-0.000174834
-0.000269845
-0.000338043
-0.000381889
-0.000407135
-0.000419926
-0.000425212
-0.000426409
-7.35012e-05
-7.72335e-05
1.71113e-05
0.000257903
0.000629235
0.00103343
0.00136473
0.00158522
0.00171297
0.00177951
0.00180917
0.00181715
0.00181238
0.00179997
0.00178275
0.00176224
0.00173918
0.00171385
0.00168629
0.00165638
0.00162392
0.00158866
0.00155034
0.00150869
0.00146346
0.00141445
0.00136147
0.00130437
0.00124307
0.00117748
0.00110752
0.00103303
0.000953752
0.000869184
0.000778531
0.000680625
0.000574013
0.000457336
0.000330224
0.000194682
5.64096e-05
-7.52665e-05
-0.000189888
-0.000279928
-0.000343597
-0.000384363
-0.000408144
-0.000420689
-0.000426409
-0.000428066
)
;

boundaryField
{
    bottomWall
    {
        type            zeroGradient;
    }
    leftWall
    {
        type            zeroGradient;
    }
    topSym
    {
        type            symmetryPlane;
    }
    rightSym
    {
        type            symmetryPlane;
    }
    inlet
    {
        type            cyclic;
    }
    outlet
    {
        type            cyclic;
    }
}


// ************************************************************************* //
