/*--------------------------------*- C++ -*----------------------------------*\
| =========                 |                                                 |
| \\      /  F ield         | OpenFOAM: The Open Source CFD Toolbox           |
|  \\    /   O peration     | Version:  v1912                                 |
|   \\  /    A nd           | Website:  www.openfoam.com                      |
|    \\/     M anipulation  |                                                 |
\*---------------------------------------------------------------------------*/
FoamFile
{
    version     2.0;
    format      ascii;
    class       surfaceScalarField;
    location    "3000";
    object      phi;
}
// * * * * * * * * * * * * * * * * * * * * * * * * * * * * * * * * * * * * * //

dimensions      [0 3 -1 0 0 0 0];
oriented        oriented;


internalField   nonuniform List<scalar> 
4900
(
1.91153e-15
1.94805e-15
-6.86718e-11
6.86738e-11
-2.69252e-10
2.00581e-10
-7.07955e-10
4.38703e-10
-1.47454e-09
7.66583e-10
-2.54226e-09
1.06772e-09
-3.70759e-09
1.16533e-09
-4.6168e-09
9.09205e-10
-4.87264e-09
2.55846e-10
-4.14914e-09
-7.23503e-10
-2.26235e-09
-1.88679e-09
8.13417e-10
-3.07577e-09
4.9709e-09
-4.15748e-09
1.00161e-08
-5.04522e-09
1.57166e-08
-5.70051e-09
2.18407e-08
-6.12407e-09
2.81831e-08
-6.34242e-09
3.45784e-08
-6.39528e-09
4.09041e-08
-6.32571e-09
4.70778e-08
-6.17372e-09
5.30507e-08
-5.97285e-09
5.87995e-08
-5.74881e-09
6.4319e-08
-5.51952e-09
6.9615e-08
-5.29597e-09
7.46982e-08
-5.08321e-09
7.95797e-08
-4.88153e-09
8.42671e-08
-4.68738e-09
8.87613e-08
-4.49424e-09
9.30545e-08
-4.29313e-09
9.71275e-08
-4.07308e-09
1.00949e-07
-3.8214e-09
1.04473e-07
-3.52393e-09
1.07638e-07
-3.16521e-09
1.10367e-07
-2.72872e-09
1.12564e-07
-2.19731e-09
1.14118e-07
-1.5537e-09
1.149e-07
-7.82461e-10
1.14772e-07
1.28012e-10
1.13583e-07
1.18915e-09
1.11173e-07
2.40984e-09
1.07386e-07
3.7875e-09
1.02076e-07
5.31005e-09
9.51244e-08
6.95131e-09
8.64495e-08
8.67489e-09
7.60219e-08
1.04276e-08
6.38645e-08
1.21574e-08
5.00626e-08
1.38019e-08
3.4728e-08
1.53346e-08
1.80099e-08
1.67181e-08
1.80099e-08
6.86738e-11
-6.86718e-11
6.86738e-11
6.86738e-11
-1.65626e-10
4.3488e-10
-8.27152e-10
1.10023e-09
-2.05808e-09
1.99752e-09
-3.75333e-09
2.76297e-09
-5.43155e-09
2.84355e-09
-6.30452e-09
1.78217e-09
-5.51363e-09
-5.35042e-10
-2.37497e-09
-3.86217e-09
3.47495e-09
-7.73671e-09
1.20508e-08
-1.16516e-08
2.30774e-08
-1.51841e-08
3.60921e-08
-1.806e-08
5.05514e-08
-2.01598e-08
6.59174e-08
-2.149e-08
8.17149e-08
-2.21399e-08
9.75612e-08
-2.22416e-08
1.13174e-07
-2.19381e-08
1.28362e-07
-2.13621e-08
1.43014e-07
-2.06252e-08
1.57079e-07
-1.98132e-08
1.70545e-07
-1.89858e-08
1.83429e-07
-1.81798e-08
1.95758e-07
-1.74121e-08
2.0756e-07
-1.66834e-08
2.18854e-07
-1.59816e-08
2.29644e-07
-1.52843e-08
2.39911e-07
-1.45607e-08
2.49611e-07
-1.37731e-08
2.58668e-07
-1.28779e-08
2.6697e-07
-1.18262e-08
2.74369e-07
-1.05645e-08
2.80676e-07
-9.03571e-09
2.85659e-07
-7.18033e-09
2.89044e-07
-4.93855e-09
2.90518e-07
-2.25636e-09
2.89739e-07
9.07474e-10
2.86335e-07
4.59277e-09
2.79915e-07
8.82944e-09
2.70092e-07
1.36107e-08
2.56508e-07
1.88945e-08
2.38866e-07
2.45937e-08
2.1696e-07
3.05803e-08
1.90711e-07
3.66772e-08
1.6017e-07
4.26975e-08
1.25534e-07
4.84381e-08
8.708e-08
5.37889e-08
4.51588e-08
5.86393e-08
6.31687e-08
2.00581e-10
-2.69252e-10
4.3488e-10
-1.65626e-10
4.3488e-10
4.3488e-10
-1.05304e-11
1.54564e-09
-1.00262e-09
2.9896e-09
-2.31109e-09
4.07145e-09
-3.17437e-09
3.70682e-09
-2.4166e-09
1.02441e-09
1.17813e-09
-4.12977e-09
8.51956e-09
-1.12036e-08
2.00354e-08
-1.92525e-08
3.5659e-08
-2.72753e-08
5.49265e-08
-3.44515e-08
7.7123e-08
-4.02565e-08
1.0143e-07
-4.44665e-08
1.27042e-07
-4.71028e-08
1.53251e-07
-4.83486e-08
1.7948e-07
-4.8471e-08
2.05302e-07
-4.77593e-08
2.30423e-07
-4.64834e-08
2.54669e-07
-4.48713e-08
2.77955e-07
-4.30991e-08
3.0026e-07
-4.12909e-08
3.21604e-07
-3.95233e-08
3.42023e-07
-3.7832e-08
3.61559e-07
-3.62191e-08
3.80237e-07
-3.46592e-08
3.98057e-07
-3.31048e-08
4.14987e-07
-3.14903e-08
4.30948e-07
-2.97344e-08
4.45813e-07
-2.77427e-08
4.59396e-07
-2.54089e-08
4.71448e-07
-2.26165e-08
4.81653e-07
-1.92404e-08
4.89622e-07
-1.515e-08
4.94897e-07
-1.02136e-08
4.96952e-07
-4.31138e-09
4.9521e-07
2.64989e-09
4.89044e-07
1.07582e-08
4.77796e-07
2.00784e-08
4.60807e-07
3.05994e-08
4.37471e-07
4.22304e-08
4.07279e-07
5.47855e-08
3.69876e-07
6.79831e-08
3.2511e-07
8.14432e-08
2.73059e-07
9.47482e-08
2.14031e-07
1.07466e-07
1.48488e-07
1.19332e-07
7.70081e-08
1.3012e-07
1.40177e-07
4.38703e-10
-7.07955e-10
1.10023e-09
-8.27152e-10
1.54564e-09
-1.05304e-11
1.54564e-09
1.54564e-09
1.19652e-09
3.33873e-09
1.04932e-09
4.21865e-09
2.25193e-09
2.50421e-09
6.33799e-09
-3.06165e-09
1.47161e-08
-1.25079e-08
2.82889e-08
-2.47764e-08
4.73338e-08
-3.82974e-08
7.15635e-08
-5.1505e-08
1.00273e-07
-6.31614e-08
1.32516e-07
-7.2499e-08
1.67259e-07
-7.92101e-08
2.03512e-07
-8.33556e-08
2.40403e-07
-8.52396e-08
2.77225e-07
-8.52927e-08
3.13445e-07
-8.39789e-08
3.48694e-07
-8.17324e-08
3.82745e-07
-7.89223e-08
4.15482e-07
-7.5836e-08
4.46869e-07
-7.26781e-08
4.76922e-07
-6.95761e-08
5.0568e-07
-6.65908e-08
5.33188e-07
-6.37264e-08
5.59469e-07
-6.09407e-08
5.84517e-07
-5.81528e-08
6.08277e-07
-5.525e-08
6.30634e-07
-5.20916e-08
6.51404e-07
-4.85128e-08
6.70322e-07
-4.43272e-08
6.87035e-07
-3.93292e-08
7.01092e-07
-3.32976e-08
7.11943e-07
-2.60003e-08
7.18932e-07
-1.7203e-08
7.2131e-07
-6.6899e-09
7.18251e-07
5.70903e-09
7.08858e-07
2.0151e-08
6.92186e-07
3.67509e-08
6.67291e-07
5.54947e-08
6.33296e-07
7.62249e-08
5.89463e-07
9.86188e-08
5.35268e-07
1.22178e-07
4.70474e-07
1.46237e-07
3.95174e-07
1.70049e-07
3.09781e-07
1.92859e-07
2.14945e-07
2.14168e-07
1.11477e-07
2.33588e-07
2.51654e-07
7.66583e-10
-1.47454e-09
1.99752e-09
-2.05808e-09
2.9896e-09
-1.00262e-09
3.33873e-09
1.19652e-09
3.33873e-09
3.33873e-09
4.17756e-09
3.37982e-09
7.76544e-09
-1.08368e-09
1.61076e-08
-1.14038e-08
3.06126e-08
-2.7013e-08
5.18525e-08
-4.60162e-08
7.96727e-08
-6.61176e-08
1.134e-07
-8.5232e-08
1.52041e-07
-1.01802e-07
1.94452e-07
-1.14911e-07
2.39475e-07
-1.24233e-07
2.86028e-07
-1.29909e-07
3.33171e-07
-1.32382e-07
3.80136e-07
-1.32258e-07
4.26336e-07
-1.30179e-07
4.71355e-07
-1.26751e-07
5.14925e-07
-1.22492e-07
5.56897e-07
-1.17808e-07
5.97212e-07
-1.12994e-07
6.3587e-07
-1.08234e-07
6.729e-07
-1.0362e-07
7.08333e-07
-9.91598e-08
7.42184e-07
-9.47914e-08
7.74427e-07
-9.03955e-08
8.04979e-07
-8.58021e-08
8.33685e-07
-8.07975e-08
8.60301e-07
-7.51292e-08
8.84483e-07
-6.85092e-08
9.05773e-07
-6.06187e-08
9.23588e-07
-5.11128e-08
9.37216e-07
-3.96285e-08
9.45811e-07
-2.57984e-08
9.48402e-07
-9.28028e-09
9.43911e-07
1.01997e-08
9.31174e-07
3.28886e-08
9.08959e-07
5.89657e-08
8.76036e-07
8.84178e-08
8.31256e-07
1.21004e-07
7.73644e-07
1.56231e-07
7.02503e-07
1.93319e-07
6.17498e-07
2.31242e-07
5.18726e-07
2.68822e-07
4.06696e-07
3.04889e-07
2.82235e-07
3.38628e-07
1.46379e-07
3.69443e-07
3.98033e-07
1.06772e-09
-2.54226e-09
2.76297e-09
-3.75333e-09
4.07145e-09
-2.31109e-09
4.21865e-09
1.04932e-09
3.37982e-09
4.17756e-09
3.37982e-09
3.37982e-09
7.33633e-09
-5.04019e-09
1.81989e-08
-2.22663e-08
3.75472e-08
-4.63613e-08
6.55291e-08
-7.39982e-08
1.01387e-07
-1.01975e-07
1.43931e-07
-1.27777e-07
1.91824e-07
-1.49695e-07
2.43725e-07
-1.66812e-07
2.98378e-07
-1.78886e-07
3.54655e-07
-1.86186e-07
4.11587e-07
-1.89314e-07
4.68373e-07
-1.89044e-07
5.24387e-07
-1.86193e-07
5.79164e-07
-1.81528e-07
6.32385e-07
-1.75713e-07
6.83852e-07
-1.69275e-07
7.33458e-07
-1.626e-07
7.81162e-07
-1.55938e-07
8.26957e-07
-1.49415e-07
8.70844e-07
-1.43047e-07
9.12806e-07
-1.36753e-07
9.52784e-07
-1.30374e-07
9.90658e-07
-1.23676e-07
1.02622e-06
-1.16362e-07
1.05917e-06
-1.08079e-07
1.08908e-06
-9.84181e-08
1.11539e-06
-8.6926e-08
1.13738e-06
-7.31088e-08
1.1542e-06
-5.64452e-08
1.16481e-06
-3.64053e-08
1.16802e-06
-1.24906e-08
1.16251e-06
1.57047e-08
1.14686e-06
4.85368e-08
1.11957e-06
8.62638e-08
1.07911e-06
1.28878e-07
1.02407e-06
1.76042e-07
9.53243e-07
2.27057e-07
8.65754e-07
2.80808e-07
7.61168e-07
3.35827e-07
6.39576e-07
3.90414e-07
5.01572e-07
4.42892e-07
3.48156e-07
4.92044e-07
1.80586e-07
5.37014e-07
5.78619e-07
1.16533e-09
-3.70759e-09
2.84355e-09
-5.43155e-09
3.70683e-09
-3.17437e-09
2.50421e-09
2.25193e-09
-1.08368e-09
7.76544e-09
-5.04019e-09
7.33633e-09
-5.04019e-09
-5.04019e-09
3.34983e-09
-3.06563e-08
2.26165e-08
-6.56279e-08
5.30286e-08
-1.0441e-07
9.34554e-08
-1.42402e-07
1.42196e-07
-1.76517e-07
1.97467e-07
-2.04966e-07
2.57613e-07
-2.26958e-07
3.21173e-07
-2.42446e-07
3.86887e-07
-2.51901e-07
4.53691e-07
-2.56118e-07
5.20701e-07
-2.56054e-07
5.87206e-07
-2.52697e-07
6.52652e-07
-2.46974e-07
7.16628e-07
-2.3969e-07
7.78847e-07
-2.31494e-07
8.39118e-07
-2.22871e-07
8.97322e-07
-2.14142e-07
9.53383e-07
-2.05476e-07
1.00724e-06
-1.96904e-07
1.05882e-06
-1.88335e-07
1.10802e-06
-1.79568e-07
1.15465e-06
-1.70308e-07
1.19845e-06
-1.60167e-07
1.23906e-06
-1.48681e-07
1.27595e-06
-1.35309e-07
1.30846e-06
-1.19442e-07
1.33577e-06
-1.00415e-07
1.35685e-06
-7.7525e-08
1.37049e-06
-5.00513e-08
1.37531e-06
-1.73101e-08
1.36975e-06
2.12651e-08
1.35213e-06
6.61574e-08
1.32068e-06
1.17718e-07
1.27361e-06
1.75951e-07
1.20924e-06
2.40411e-07
1.12613e-06
3.10161e-07
1.02324e-06
3.83698e-07
9.00029e-07
4.59041e-07
7.56572e-07
5.33872e-07
5.93551e-07
6.05913e-07
4.12134e-07
6.73461e-07
2.13811e-07
7.35337e-07
7.9243e-07
9.09205e-10
-4.6168e-09
1.78218e-09
-6.30452e-09
1.02441e-09
-2.4166e-09
-3.06165e-09
6.33799e-09
-1.14038e-08
1.61076e-08
-2.22663e-08
1.81989e-08
-3.06563e-08
3.34982e-09
-3.06563e-08
-3.06563e-08
-1.81795e-08
-7.81047e-08
8.11567e-09
-1.30706e-07
4.74499e-08
-1.81736e-07
9.79449e-08
-2.27012e-07
1.57401e-07
-2.64421e-07
2.2371e-07
-2.93267e-07
2.9502e-07
-3.13755e-07
3.69758e-07
-3.26639e-07
4.46611e-07
-3.32972e-07
5.24495e-07
-3.33938e-07
6.02522e-07
-3.30724e-07
6.79978e-07
-3.2443e-07
7.56304e-07
-3.16016e-07
8.31071e-07
-3.0626e-07
9.03957e-07
-2.95757e-07
9.74723e-07
-2.84909e-07
1.04319e-06
-2.7394e-07
1.10919e-06
-2.62908e-07
1.17257e-06
-2.51718e-07
1.23315e-06
-2.4014e-07
1.29065e-06
-2.27814e-07
1.34475e-06
-2.14267e-07
1.39499e-06
-1.98915e-07
1.44075e-06
-1.81074e-07
1.48128e-06
-1.59968e-07
1.51561e-06
-1.34743e-07
1.54257e-06
-1.04488e-07
1.56079e-06
-6.82688e-08
1.56867e-06
-2.51904e-08
1.56443e-06
2.55054e-08
1.54614e-06
8.44442e-08
1.51177e-06
1.52085e-07
1.45928e-06
2.28446e-07
1.38672e-06
3.12968e-07
1.29243e-06
4.04446e-07
1.1752e-06
5.00937e-07
1.03436e-06
5.99872e-07
8.7001e-07
6.98226e-07
6.82896e-07
7.93027e-07
4.74368e-07
8.81989e-07
2.46162e-07
9.63542e-07
1.03859e-06
2.55846e-10
-4.87264e-09
-5.35041e-10
-5.51363e-09
-4.12977e-09
1.17813e-09
-1.25079e-08
1.47161e-08
-2.7013e-08
3.06126e-08
-4.63613e-08
3.75472e-08
-6.56279e-08
2.26165e-08
-7.81047e-08
-1.81795e-08
-7.81047e-08
-7.81047e-08
-6.25223e-08
-1.46288e-07
-3.08648e-08
-2.13394e-07
1.55417e-08
-2.73419e-07
7.44664e-08
-3.23346e-07
1.43441e-07
-3.62242e-07
2.20131e-07
-3.90445e-07
3.02483e-07
-4.08991e-07
3.88761e-07
-4.1925e-07
4.77523e-07
-4.227e-07
5.67582e-07
-4.20782e-07
6.57969e-07
-4.14818e-07
7.47905e-07
-4.05951e-07
8.36761e-07
-3.95117e-07
9.24039e-07
-3.83035e-07
1.00934e-06
-3.70209e-07
1.09233e-06
-3.5693e-07
1.17272e-06
-3.43296e-07
1.25022e-06
-3.29221e-07
1.32453e-06
-3.14451e-07
1.39529e-06
-2.98572e-07
1.46205e-06
-2.81023e-07
1.52423e-06
-2.61103e-07
1.58114e-06
-2.37977e-07
1.63186e-06
-2.10692e-07
1.67531e-06
-1.78189e-07
1.71015e-06
-1.39334e-07
1.73484e-06
-9.29573e-08
1.74758e-06
-3.7926e-08
1.74634e-06
2.67367e-08
1.72898e-06
1.01814e-07
1.69318e-06
1.87883e-07
1.63664e-06
2.84985e-07
1.55717e-06
3.92435e-07
1.45288e-06
5.08732e-07
1.32238e-06
6.3144e-07
1.16492e-06
7.57331e-07
9.80568e-07
8.82581e-07
7.7017e-07
1.00343e-06
5.35263e-07
1.1169e-06
2.7785e-07
1.22096e-06
1.31644e-06
-7.23503e-10
-4.14914e-09
-3.86217e-09
-2.37497e-09
-1.12036e-08
8.51956e-09
-2.47763e-08
2.82889e-08
-4.60162e-08
5.18525e-08
-7.39982e-08
6.55291e-08
-1.0441e-07
5.30286e-08
-1.30706e-07
8.11567e-09
-1.46288e-07
-6.25223e-08
-1.46288e-07
-1.46288e-07
-1.28327e-07
-2.31355e-07
-9.23287e-08
-3.09417e-07
-3.9827e-08
-3.75848e-07
2.68015e-08
-4.2887e-07
1.04921e-07
-4.68564e-07
1.91992e-07
-4.96061e-07
2.85741e-07
-5.13e-07
3.84222e-07
-5.21181e-07
4.85806e-07
-5.22366e-07
5.89149e-07
-5.18162e-07
6.93156e-07
-5.09957e-07
7.96931e-07
-4.98892e-07
8.99745e-07
-4.85849e-07
1.00099e-06
-4.71457e-07
1.10016e-06
-4.56098e-07
1.19679e-06
-4.39923e-07
1.29044e-06
-4.22868e-07
1.38065e-06
-4.04663e-07
1.46692e-06
-3.84845e-07
1.54867e-06
-3.62769e-07
1.62518e-06
-3.37613e-07
1.69559e-06
-3.08392e-07
1.75886e-06
-2.73965e-07
1.81373e-06
-2.33059e-07
1.8587e-06
-1.843e-07
1.89201e-06
-1.26264e-07
1.91164e-06
-5.7563e-08
1.91535e-06
2.3026e-08
1.90071e-06
1.16458e-07
1.86516e-06
2.23436e-07
1.80612e-06
3.44026e-07
1.72115e-06
4.77407e-07
1.60812e-06
6.21754e-07
1.46548e-06
7.74086e-07
1.29237e-06
9.3044e-07
1.08885e-06
1.0861e-06
8.55876e-07
1.2364e-06
5.95182e-07
1.37759e-06
3.09065e-07
1.50707e-06
1.62551e-06
-1.88679e-09
-2.26235e-09
-7.73671e-09
3.47495e-09
-1.92525e-08
2.00354e-08
-3.82974e-08
4.73338e-08
-6.61176e-08
7.96727e-08
-1.01975e-07
1.01387e-07
-1.42402e-07
9.34554e-08
-1.81736e-07
4.74499e-08
-2.13394e-07
-3.08648e-08
-2.31355e-07
-1.28327e-07
-2.31355e-07
-2.31355e-07
-2.11378e-07
-3.29393e-07
-1.71482e-07
-4.15744e-07
-1.13232e-07
-4.87121e-07
-3.90585e-08
-5.42738e-07
4.82745e-08
-5.83394e-07
1.4603e-07
-6.10756e-07
2.51703e-07
-6.26853e-07
3.63106e-07
-6.33769e-07
4.7839e-07
-6.33445e-07
5.96019e-07
-6.27586e-07
7.14732e-07
-6.17605e-07
8.33489e-07
-6.04607e-07
9.51427e-07
-5.89395e-07
1.06781e-06
-5.72477e-07
1.18197e-06
-5.54084e-07
1.29329e-06
-5.34188e-07
1.40114e-06
-5.12513e-07
1.50484e-06
-4.88553e-07
1.60365e-06
-4.61576e-07
1.69668e-06
-4.30642e-07
1.78289e-06
-3.94603e-07
1.86105e-06
-3.52125e-07
1.9297e-06
-3.01709e-07
1.98713e-06
-2.41728e-07
2.03135e-06
-1.70488e-07
2.06012e-06
-8.63264e-08
2.0709e-06
1.22449e-08
2.06099e-06
1.26368e-07
2.02755e-06
2.56873e-07
1.96772e-06
4.03852e-07
1.8788e-06
5.66335e-07
1.75841e-06
7.42139e-07
1.60482e-06
9.27682e-07
1.41707e-06
1.11819e-06
1.19522e-06
1.30795e-06
9.40326e-07
1.49129e-06
6.54358e-07
1.66356e-06
3.39935e-07
1.8215e-06
1.96544e-06
-3.07577e-09
8.13417e-10
-1.16516e-08
1.20508e-08
-2.72753e-08
3.5659e-08
-5.1505e-08
7.15635e-08
-8.5232e-08
1.134e-07
-1.27777e-07
1.43931e-07
-1.76517e-07
1.42196e-07
-2.27012e-07
9.79449e-08
-2.73419e-07
1.55417e-08
-3.09417e-07
-9.23287e-08
-3.29393e-07
-2.11378e-07
-3.29393e-07
-3.29393e-07
-3.07525e-07
-4.37612e-07
-2.63835e-07
-5.30811e-07
-1.9985e-07
-6.06723e-07
-1.18017e-07
-6.65227e-07
-2.12074e-08
-7.07565e-07
8.7655e-08
-7.35716e-07
2.05827e-07
-7.51941e-07
3.3087e-07
-7.58488e-07
4.60689e-07
-7.57406e-07
5.93528e-07
-7.50443e-07
7.27927e-07
-7.39005e-07
8.62669e-07
-7.24137e-07
9.96724e-07
-7.06531e-07
1.12918e-06
-6.86545e-07
1.25921e-06
-6.64216e-07
1.38598e-06
-6.39285e-07
1.50864e-06
-6.11206e-07
1.62623e-06
-5.79166e-07
1.73768e-06
-5.42095e-07
1.84176e-06
-4.98677e-07
1.937e-06
-4.4737e-07
2.02172e-06
-3.86432e-07
2.09396e-06
-3.13967e-07
2.15147e-06
-2.27995e-07
2.1917e-06
-1.2656e-07
2.21184e-06
-7.89292e-09
2.20885e-06
1.29356e-07
2.17959e-06
2.86135e-07
2.12088e-06
4.62559e-07
2.02973e-06
6.57493e-07
1.90351e-06
8.68357e-07
1.74028e-06
1.09091e-06
1.539e-06
1.31947e-06
1.29971e-06
1.54724e-06
1.02359e-06
1.76741e-06
7.12856e-07
1.97429e-06
3.70501e-07
2.16385e-06
2.33594e-06
-4.15748e-09
4.9709e-09
-1.5184e-08
2.30774e-08
-3.44515e-08
5.49265e-08
-6.31614e-08
1.00273e-07
-1.01802e-07
1.52041e-07
-1.49695e-07
1.91824e-07
-2.04966e-07
1.97467e-07
-2.64421e-07
1.57401e-07
-3.23346e-07
7.44664e-08
-3.75848e-07
-3.9827e-08
-4.15744e-07
-1.71482e-07
-4.37612e-07
-3.07525e-07
-4.37612e-07
-4.37612e-07
-4.13855e-07
-5.54568e-07
-3.66317e-07
-6.5426e-07
-2.96461e-07
-7.35083e-07
-2.06736e-07
-7.97291e-07
-1.00102e-07
-8.4235e-07
2.03405e-08
-8.72383e-07
1.51615e-07
-8.89763e-07
2.91023e-07
-8.96813e-07
4.36205e-07
-8.95626e-07
5.85155e-07
-8.87955e-07
7.3618e-07
-8.75162e-07
8.8785e-07
-8.58201e-07
1.03893e-06
-8.37621e-07
1.18829e-06
-8.13584e-07
1.33489e-06
-7.85882e-07
1.47764e-06
-7.53958e-07
1.6154e-06
-7.16924e-07
1.74688e-06
-6.73579e-07
1.87063e-06
-6.22425e-07
1.98496e-06
-5.61696e-07
2.08791e-06
-4.89384e-07
2.17724e-06
-4.03301e-07
2.2504e-06
-3.01155e-07
2.30452e-06
-1.80676e-07
2.33642e-06
-3.97958e-08
2.34271e-06
1.23067e-07
2.31988e-06
3.08965e-07
2.26441e-06
5.18031e-07
2.17296e-06
7.48941e-07
2.04264e-06
9.98675e-07
1.87129e-06
1.26226e-06
1.65774e-06
1.53303e-06
1.40203e-06
1.80295e-06
1.10547e-06
2.06396e-06
7.70566e-07
2.3092e-06
4.00713e-07
2.5337e-06
2.73666e-06
-5.04522e-09
1.00161e-08
-1.806e-08
3.60921e-08
-4.02565e-08
7.7123e-08
-7.2499e-08
1.32516e-07
-1.14911e-07
1.94452e-07
-1.66812e-07
2.43725e-07
-2.26958e-07
2.57613e-07
-2.93267e-07
2.2371e-07
-3.62242e-07
1.43441e-07
-4.2887e-07
2.68015e-08
-4.87121e-07
-1.13232e-07
-5.30811e-07
-2.63835e-07
-5.54568e-07
-4.13855e-07
-5.54568e-07
-5.54568e-07
-5.2887e-07
-6.79959e-07
-4.7736e-07
-7.86593e-07
-4.01426e-07
-8.73225e-07
-3.03507e-07
-9.40269e-07
-1.86644e-07
-9.89246e-07
-5.40998e-08
-1.02231e-06
9.0921e-08
-1.04183e-06
2.45451e-07
-1.05016e-06
4.0685e-07
-1.04935e-06
5.72829e-07
-1.04114e-06
7.41426e-07
-1.0268e-06
9.10948e-07
-1.00714e-06
1.0799e-06
-9.82537e-07
1.24691e-06
-9.5289e-07
1.41063e-06
-9.1768e-07
1.56968e-06
-8.75973e-07
1.72255e-06
-8.26451e-07
1.86756e-06
-7.6743e-07
2.00276e-06
-6.96899e-07
2.12594e-06
-6.12562e-07
2.23454e-06
-5.11905e-07
2.32568e-06
-3.92292e-07
2.39611e-06
-2.51107e-07
2.44228e-06
-8.59576e-08
2.46034e-06
1.04999e-07
2.44639e-06
3.22915e-07
2.3965e-06
5.67928e-07
2.30694e-06
8.38497e-07
2.1745e-06
1.13111e-06
1.99677e-06
1.43999e-06
1.77244e-06
1.75736e-06
1.50154e-06
2.07385e-06
1.18553e-06
2.37998e-06
8.27198e-07
2.66753e-06
4.30428e-07
2.93047e-06
3.16708e-06
-5.70051e-09
1.57166e-08
-2.01598e-08
5.05514e-08
-4.44665e-08
1.0143e-07
-7.92101e-08
1.67259e-07
-1.24233e-07
2.39475e-07
-1.78886e-07
2.98378e-07
-2.42446e-07
3.21173e-07
-3.13755e-07
2.9502e-07
-3.90445e-07
2.20131e-07
-4.68564e-07
1.04921e-07
-5.42738e-07
-3.90585e-08
-6.06723e-07
-1.9985e-07
-6.5426e-07
-3.66317e-07
-6.79959e-07
-5.2887e-07
-6.79959e-07
-6.79959e-07
-6.52242e-07
-8.1431e-07
-5.96593e-07
-9.28874e-07
-5.1432e-07
-1.02254e-06
-4.07847e-07
-1.09572e-06
-2.80285e-07
-1.14987e-06
-1.35051e-07
-1.18707e-06
2.44215e-08
-1.20963e-06
1.94889e-07
-1.21982e-06
3.73406e-07
-1.21966e-06
5.57369e-07
-1.21076e-06
7.44499e-07
-1.19427e-06
9.3279e-07
-1.17083e-06
1.12043e-06
-1.14053e-06
1.30573e-06
-1.10297e-06
1.48697e-06
-1.05722e-06
1.6624e-06
-1.00188e-06
1.83007e-06
-9.35098e-07
1.98779e-06
-8.54614e-07
2.13305e-06
-7.57822e-07
2.26299e-06
-6.41846e-07
2.37436e-06
-5.03666e-07
2.46353e-06
-3.40277e-07
2.5265e-06
-1.48925e-07
2.55896e-06
7.2534e-08
2.55652e-06
3.2536e-07
2.51476e-06
6.09682e-07
2.42955e-06
9.23715e-07
2.29726e-06
1.2634e-06
2.11519e-06
1.62206e-06
1.88186e-06
1.99069e-06
1.59727e-06
2.35843e-06
1.26304e-06
2.71421e-06
8.82281e-07
3.04829e-06
4.5941e-07
3.35334e-06
3.62649e-06
-6.12406e-09
2.18407e-08
-2.149e-08
6.59174e-08
-4.71028e-08
1.27042e-07
-8.33556e-08
2.03512e-07
-1.29909e-07
2.86028e-07
-1.86186e-07
3.54655e-07
-2.51901e-07
3.86887e-07
-3.26639e-07
3.69758e-07
-4.08991e-07
3.02483e-07
-4.96061e-07
1.91992e-07
-5.83394e-07
4.82745e-08
-6.65227e-07
-1.18017e-07
-7.35083e-07
-2.96461e-07
-7.86593e-07
-4.7736e-07
-8.1431e-07
-6.52242e-07
-8.1431e-07
-8.1431e-07
-7.84476e-07
-9.58707e-07
-7.24485e-07
-1.08253e-06
-6.3556e-07
-1.18464e-06
-5.20104e-07
-1.26533e-06
-3.81294e-07
-1.32588e-06
-2.22703e-07
-1.36822e-06
-4.79947e-08
-1.39453e-06
1.39295e-07
-1.40695e-06
3.35888e-07
-1.40735e-06
5.38827e-07
-1.39721e-06
7.45464e-07
-1.37747e-06
9.53417e-07
-1.34849e-06
1.16049e-06
-1.31004e-06
1.36458e-06
-1.26131e-06
1.56354e-06
-1.20085e-06
1.75514e-06
-1.12669e-06
1.93688e-06
-1.03635e-06
2.10597e-06
-9.26909e-07
2.25922e-06
-7.95096e-07
2.39302e-06
-6.37469e-07
2.50333e-06
-4.50582e-07
2.58567e-06
-2.3127e-07
2.63524e-06
2.29612e-08
2.64709e-06
3.13517e-07
2.61626e-06
6.40505e-07
2.5381e-06
1.00188e-06
2.40854e-06
1.39296e-06
2.22451e-06
1.80608e-06
1.98431e-06
2.2309e-06
1.68789e-06
2.65485e-06
1.337e-06
3.0651e-06
9.35149e-07
3.45014e-06
4.87325e-07
3.80117e-06
4.11382e-06
-6.34242e-09
2.81831e-08
-2.21399e-08
8.17149e-08
-4.83486e-08
1.53251e-07
-8.52396e-08
2.40403e-07
-1.32382e-07
3.33171e-07
-1.89314e-07
4.11587e-07
-2.56118e-07
4.53691e-07
-3.32972e-07
4.46611e-07
-4.1925e-07
3.88761e-07
-5.13e-07
2.85741e-07
-6.10756e-07
1.4603e-07
-7.07565e-07
-2.12074e-08
-7.97291e-07
-2.06736e-07
-8.73225e-07
-4.01426e-07
-9.28874e-07
-5.96593e-07
-9.58707e-07
-7.84476e-07
-9.58707e-07
-9.58707e-07
-9.26641e-07
-1.1146e-06
-8.62064e-07
-1.24922e-06
-7.66113e-07
-1.36128e-06
-6.41172e-07
-1.45082e-06
-4.90482e-07
-1.51891e-06
-3.17776e-07
-1.56724e-06
-1.26962e-07
-1.59776e-06
7.81082e-08
-1.61242e-06
2.9379e-07
-1.61289e-06
5.16721e-07
-1.6004e-06
7.43827e-07
-1.57559e-06
9.72276e-07
-1.53849e-06
1.1994e-06
-1.48843e-06
1.4226e-06
-1.42405e-06
1.6392e-06
-1.34329e-06
1.84636e-06
-1.24351e-06
2.04093e-06
-1.12148e-06
2.2194e-06
-9.73563e-07
2.37777e-06
-7.95845e-07
2.51159e-06
-5.84398e-07
2.6159e-06
-3.35584e-07
2.68536e-06
-4.65009e-08
2.71441e-06
2.84467e-07
2.69752e-06
6.57404e-07
2.6294e-06
1.06999e-06
2.50548e-06
1.51688e-06
2.32223e-06
1.98933e-06
2.07768e-06
2.47545e-06
1.77168e-06
2.96085e-06
1.40614e-06
3.43064e-06
9.8494e-07
3.87134e-06
5.13734e-07
4.27237e-06
4.62755e-06
-6.39528e-09
3.45784e-08
-2.22416e-08
9.75612e-08
-4.8471e-08
1.7948e-07
-8.52927e-08
2.77225e-07
-1.32258e-07
3.80136e-07
-1.89044e-07
4.68373e-07
-2.56054e-07
5.20701e-07
-3.33938e-07
5.24495e-07
-4.227e-07
4.77523e-07
-5.21181e-07
3.84222e-07
-6.26853e-07
2.51703e-07
-7.35716e-07
8.7655e-08
-8.4235e-07
-1.00102e-07
-9.40269e-07
-3.03507e-07
-1.02254e-06
-5.1432e-07
-1.08253e-06
-7.24485e-07
-1.1146e-06
-9.26641e-07
-1.1146e-06
-1.1146e-06
-1.08016e-06
-1.28366e-06
-1.01072e-06
-1.43072e-06
-9.07305e-07
-1.55423e-06
-7.72297e-07
-1.65392e-06
-6.09006e-07
-1.73053e-06
-4.21338e-07
-1.78543e-06
-2.13467e-07
-1.82029e-06
1.04061e-08
-1.83677e-06
2.46227e-07
-1.83622e-06
4.90169e-07
-1.81953e-06
7.38658e-07
-1.78698e-06
9.88328e-07
-1.7381e-06
1.23595e-06
-1.67166e-06
1.4783e-06
-1.58564e-06
1.71206e-06
-1.47727e-06
1.93366e-06
-1.34309e-06
2.13919e-06
-1.17909e-06
2.32425e-06
-9.80905e-07
2.48394e-06
-7.44088e-07
2.61283e-06
-4.64475e-07
2.70502e-06
-1.38693e-07
2.75432e-06
2.35172e-07
2.75452e-06
6.57199e-07
2.69971e-06
1.1248e-06
2.58465e-06
1.63194e-06
2.40533e-06
2.16865e-06
2.15939e-06
2.72139e-06
1.84656e-06
3.27367e-06
1.46886e-06
3.80835e-06
1.03057e-06
4.30963e-06
5.38084e-07
4.76486e-06
5.16564e-06
-6.32571e-09
4.09041e-08
-2.19381e-08
1.13174e-07
-4.77593e-08
2.05302e-07
-8.39789e-08
3.13445e-07
-1.30179e-07
4.26336e-07
-1.86193e-07
5.24387e-07
-2.52697e-07
5.87206e-07
-3.30724e-07
6.02522e-07
-4.20782e-07
5.67582e-07
-5.22366e-07
4.85806e-07
-6.33769e-07
3.63106e-07
-7.51941e-07
2.05827e-07
-8.72383e-07
2.03405e-08
-9.89246e-07
-1.86644e-07
-1.09572e-06
-4.07847e-07
-1.18464e-06
-6.3556e-07
-1.24922e-06
-8.62064e-07
-1.28366e-06
-1.08016e-06
-1.28366e-06
-1.28366e-06
-1.24669e-06
-1.46769e-06
-1.17205e-06
-1.62887e-06
-1.06068e-06
-1.76528e-06
-9.14952e-07
-1.87626e-06
-7.38256e-07
-1.96213e-06
-5.34697e-07
-2.02385e-06
-3.08749e-07
-2.06272e-06
-6.50009e-08
-2.07997e-06
1.92021e-07
-2.07656e-06
4.57958e-07
-2.05292e-06
7.28648e-07
-2.00879e-06
1.00009e-06
-1.94311e-06
1.26838e-06
-1.85393e-06
1.52956e-06
-1.73845e-06
1.77951e-06
-1.59304e-06
2.01381e-06
-1.41339e-06
2.22761e-06
-1.19471e-06
2.41553e-06
-9.32007e-07
2.57163e-06
-6.20574e-07
2.68945e-06
-2.56511e-07
2.76213e-06
1.62486e-07
2.78279e-06
6.36538e-07
2.74478e-06
1.16282e-06
2.64216e-06
1.73455e-06
2.47031e-06
2.3405e-06
2.22643e-06
2.96527e-06
1.91004e-06
3.59007e-06
1.52323e-06
4.19515e-06
1.07073e-06
4.76213e-06
5.59703e-07
5.27589e-06
5.72534e-06
-6.17372e-09
4.70778e-08
-2.13621e-08
1.28362e-07
-4.64834e-08
2.30423e-07
-8.17324e-08
3.48694e-07
-1.26751e-07
4.71355e-07
-1.81528e-07
5.79164e-07
-2.46974e-07
6.52652e-07
-3.2443e-07
6.79978e-07
-4.14818e-07
6.57969e-07
-5.18162e-07
5.89149e-07
-6.33445e-07
4.7839e-07
-7.58488e-07
3.3087e-07
-8.89763e-07
1.51615e-07
-1.02231e-06
-5.40998e-08
-1.14987e-06
-2.80285e-07
-1.26533e-06
-5.20104e-07
-1.36128e-06
-7.66113e-07
-1.43072e-06
-1.01072e-06
-1.46769e-06
-1.24669e-06
-1.46769e-06
-1.46769e-06
-1.42802e-06
-1.66855e-06
-1.34781e-06
-1.84549e-06
-1.22793e-06
-1.99613e-06
-1.07075e-06
-2.11931e-06
-8.7977e-07
-2.21483e-06
-6.59323e-07
-2.28316e-06
-4.14224e-07
-2.32506e-06
-1.4951e-07
-2.34127e-06
1.29753e-07
-2.33218e-06
4.18585e-07
-2.29763e-06
7.12137e-07
-2.23666e-06
1.00566e-06
-2.14745e-06
1.29442e-06
-2.02721e-06
1.57361e-06
-1.87222e-06
1.83815e-06
-1.67793e-06
2.08261e-06
-1.43917e-06
2.30106e-06
-1.15046e-06
2.48701e-06
-8.06524e-07
2.6334e-06
-4.02906e-07
2.73273e-06
6.31595e-08
2.77736e-06
5.9191e-07
2.75987e-06
1.1803e-06
2.67359e-06
1.82084e-06
2.51317e-06
2.50092e-06
2.27529e-06
3.20315e-06
1.95918e-06
3.90617e-06
1.56699e-06
4.58735e-06
1.10385e-06
5.22527e-06
5.77785e-07
5.80196e-06
6.30312e-06
-5.97285e-09
5.30507e-08
-2.06252e-08
1.43014e-07
-4.48713e-08
2.54669e-07
-7.89223e-08
3.82745e-07
-1.22492e-07
5.14925e-07
-1.75713e-07
6.32385e-07
-2.3969e-07
7.16628e-07
-3.16016e-07
7.56304e-07
-4.05951e-07
7.47905e-07
-5.09957e-07
6.93156e-07
-6.27586e-07
5.96019e-07
-7.57406e-07
4.60689e-07
-8.96813e-07
2.91023e-07
-1.04183e-06
9.0921e-08
-1.18707e-06
-1.35051e-07
-1.32588e-06
-3.81294e-07
-1.45082e-06
-6.41172e-07
-1.55423e-06
-9.07305e-07
-1.62887e-06
-1.17205e-06
-1.66855e-06
-1.42802e-06
-1.66855e-06
-1.66855e-06
-1.62596e-06
-1.88807e-06
-1.53978e-06
-2.08231e-06
-1.4108e-06
-2.2483e-06
-1.24137e-06
-2.38425e-06
-1.03517e-06
-2.48936e-06
-7.9679e-07
-2.56345e-06
-5.31442e-07
-2.60662e-06
-2.44685e-07
-2.61894e-06
5.7788e-08
-2.6001e-06
3.70274e-07
-2.54915e-06
6.87113e-07
-2.46429e-06
1.00267e-06
-2.34277e-06
1.31125e-06
-2.1808e-06
1.607e-06
-1.97368e-06
1.88375e-06
-1.71591e-06
2.13489e-06
-1.4016e-06
2.35328e-06
-1.02492e-06
2.53123e-06
-5.80855e-07
2.66053e-06
-6.61408e-08
2.73278e-06
5.19658e-07
2.73978e-06
1.1733e-06
2.67402e-06
1.8866e-06
2.52941e-06
2.64554e-06
2.302e-06
3.43056e-06
1.99065e-06
4.21752e-06
1.59751e-06
4.9805e-06
1.12812e-06
5.69466e-06
5.91385e-07
6.33869e-06
6.89451e-06
-5.7488e-09
5.87995e-08
-1.98132e-08
1.57079e-07
-4.30991e-08
2.77955e-07
-7.5836e-08
4.15482e-07
-1.17808e-07
5.56897e-07
-1.69275e-07
6.83852e-07
-2.31494e-07
7.78847e-07
-3.0626e-07
8.31071e-07
-3.95117e-07
8.36761e-07
-4.98892e-07
7.96931e-07
-6.17605e-07
7.14732e-07
-7.50443e-07
5.93528e-07
-8.95626e-07
4.36205e-07
-1.05016e-06
2.45451e-07
-1.20963e-06
2.44215e-08
-1.36822e-06
-2.22703e-07
-1.51891e-06
-4.90482e-07
-1.65392e-06
-7.72297e-07
-1.76528e-06
-1.06068e-06
-1.84549e-06
-1.34781e-06
-1.88807e-06
-1.62596e-06
-1.88807e-06
-1.88807e-06
-1.84237e-06
-2.12802e-06
-1.74977e-06
-2.34089e-06
-1.61102e-06
-2.52301e-06
-1.42852e-06
-2.67186e-06
-1.20612e-06
-2.78585e-06
-9.48728e-07
-2.86401e-06
-6.62042e-07
-2.90563e-06
-3.52223e-07
-2.90992e-06
-2.56987e-08
-2.87567e-06
3.10981e-07
-2.80097e-06
6.51207e-07
-2.68299e-06
9.88298e-07
-2.51789e-06
1.31543e-06
-2.30082e-06
1.62555e-06
-2.02603e-06
1.9112e-06
-1.68725e-06
2.16447e-06
-1.27819e-06
2.3769e-06
-7.93289e-07
2.53956e-06
-2.28794e-07
2.64322e-06
4.15998e-07
2.67885e-06
1.13767e-06
2.63811e-06
1.92734e-06
2.51407e-06
2.76957e-06
2.30211e-06
3.64252e-06
2.00067e-06
4.51897e-06
1.61178e-06
5.36938e-06
1.14142e-06
6.16502e-06
5.9941e-07
6.8807e-06
7.49392e-06
-5.51952e-09
6.4319e-08
-1.89858e-08
1.70545e-07
-4.12909e-08
3.0026e-07
-7.2678e-08
4.46869e-07
-1.12994e-07
5.97212e-07
-1.626e-07
7.33458e-07
-2.22871e-07
8.39118e-07
-2.95757e-07
9.03957e-07
-3.83035e-07
9.24039e-07
-4.85849e-07
8.99745e-07
-6.04607e-07
8.33489e-07
-7.39005e-07
7.27927e-07
-8.87955e-07
5.85155e-07
-1.04935e-06
4.0685e-07
-1.21982e-06
1.94889e-07
-1.39453e-06
-4.79947e-08
-1.56724e-06
-3.17776e-07
-1.73053e-06
-6.09006e-07
-1.87626e-06
-9.14952e-07
-1.99613e-06
-1.22793e-06
-2.08231e-06
-1.53978e-06
-2.12802e-06
-1.84237e-06
-2.12802e-06
-2.12802e-06
-2.07895e-06
-2.38996e-06
-1.97948e-06
-2.62248e-06
-1.83027e-06
-2.82107e-06
-1.63383e-06
-2.98229e-06
-1.39422e-06
-3.10362e-06
-1.11676e-06
-3.18308e-06
-8.077e-07
-3.21898e-06
-4.73916e-07
-3.20946e-06
-1.22697e-07
-3.15219e-06
2.38414e-07
-3.0441e-06
6.01696e-07
-2.88118e-06
9.59249e-07
-2.65837e-06
1.30294e-06
-2.36972e-06
1.62432e-06
-2.00863e-06
1.91452e-06
-1.56839e-06
2.16419e-06
-1.04296e-06
2.36353e-06
-4.28136e-07
2.50245e-06
2.77077e-07
2.57105e-06
1.06907e-06
2.56008e-06
1.93831e-06
2.46178e-06
2.86787e-06
2.27078e-06
3.83352e-06
1.98503e-06
4.80472e-06
1.60647e-06
5.74794e-06
1.14141e-06
6.63008e-06
6.00621e-07
7.42149e-06
8.09454e-06
-5.29597e-09
6.9615e-08
-1.81798e-08
1.83429e-07
-3.95233e-08
3.21604e-07
-6.95761e-08
4.76922e-07
-1.08234e-07
6.3587e-07
-1.55938e-07
7.81162e-07
-2.14142e-07
8.97322e-07
-2.84909e-07
9.74723e-07
-3.70209e-07
1.00934e-06
-4.71457e-07
1.00099e-06
-5.89395e-07
9.51427e-07
-7.24137e-07
8.62669e-07
-8.75162e-07
7.3618e-07
-1.04114e-06
5.72829e-07
-1.21966e-06
3.73406e-07
-1.40695e-06
1.39295e-07
-1.59776e-06
-1.26962e-07
-1.78543e-06
-4.21338e-07
-1.96213e-06
-7.38256e-07
-2.11931e-06
-1.07075e-06
-2.2483e-06
-1.4108e-06
-2.34089e-06
-1.74977e-06
-2.38996e-06
-2.07895e-06
-2.38996e-06
-2.38996e-06
-2.33728e-06
-2.67516e-06
-2.23044e-06
-2.92791e-06
-2.07007e-06
-3.14267e-06
-1.85879e-06
-3.31489e-06
-1.60099e-06
-3.44089e-06
-1.30244e-06
-3.51752e-06
-9.70073e-07
-3.54183e-06
-6.116e-07
-3.51066e-06
-2.35323e-07
-3.42038e-06
1.50055e-07
-3.26655e-06
5.35515e-07
-3.04383e-06
9.1175e-07
-2.74596e-06
1.26913e-06
-2.36601e-06
1.59766e-06
-1.89691e-06
1.8869e-06
-1.33221e-06