/*--------------------------------*- C++ -*----------------------------------*\
| =========                 |                                                 |
| \\      /  F ield         | OpenFOAM: The Open Source CFD Toolbox           |
|  \\    /   O peration     | Version:  v1912                                 |
|   \\  /    A nd           | Website:  www.openfoam.com                      |
|    \\/     M anipulation  |                                                 |
\*---------------------------------------------------------------------------*/
FoamFile
{
    version     2.0;
    format      ascii;
    class       volSymmTensorField;
    location    "3000";
    object      turbulenceProperties:R;
}
// * * * * * * * * * * * * * * * * * * * * * * * * * * * * * * * * * * * * * //

dimensions      [0 2 -2 0 0 0 0];


internalField   nonuniform List<symmTensor> 
2500
(
(0.000833013 -3.45226e-05 -3.45226e-05 0.000833014 1.52886e-09 0.000833014)
(0.000890053 -2.60286e-05 -8.26826e-05 0.000890056 -4.44352e-10 0.000890051)
(0.00102275 -2.41139e-05 -0.000130996 0.00102276 3.3392e-09 0.00102274)
(0.00122937 -2.38478e-05 -0.000186653 0.00122939 1.55528e-08 0.00122935)
(0.00150025 -2.43393e-05 -0.00025247 0.00150029 4.33295e-08 0.00150022)
(0.001823 -2.5036e-05 -0.000328795 0.00182306 9.22049e-08 0.00182297)
(0.00218532 -2.56149e-05 -0.000414743 0.00218539 1.5818e-07 0.00218531)
(0.00257626 -2.59108e-05 -0.000508909 0.00257631 2.23159e-07 0.00257629)
(0.00298662 -2.58648e-05 -0.000609733 0.00298664 2.57574e-07 0.00298672)
(0.00340893 -2.54844e-05 -0.000715683 0.00340889 2.28795e-07 0.00340913)
(0.00383724 -2.48123e-05 -0.000825342 0.00383714 1.09759e-07 0.00383756)
(0.00426688 -2.39088e-05 -0.000937459 0.00426672 -1.1555e-07 0.00426734)
(0.00469432 -2.28405e-05 -0.00105098 0.00469412 -4.50557e-07 0.00469492)
(0.005117 -2.16684e-05 -0.00116505 0.00511676 -8.8774e-07 0.00511773)
(0.00553316 -2.04439e-05 -0.00127901 0.00553289 -1.41204e-06 0.00553401)
(0.0059417 -1.92095e-05 -0.00139238 0.00594142 -2.00462e-06 0.00594268)
(0.00634203 -1.79954e-05 -0.00150481 0.00634176 -2.64603e-06 0.00634315)
(0.00673394 -1.68222e-05 -0.00161608 0.00673368 -3.31845e-06 0.00673518)
(0.00711756 -1.57021e-05 -0.00172606 0.00711731 -4.00701e-06 0.00711893)
(0.00749291 -1.46411e-05 -0.00183469 0.00749268 -4.70026e-06 0.00749442)
(0.00786046 -1.36415e-05 -0.0019419 0.00786024 -5.38986e-06 0.0078621)
(0.00822033 -1.2703e-05 -0.00204771 0.00822014 -6.07047e-06 0.00822213)
(0.00857294 -1.18231e-05 -0.00215207 0.00857276 -6.73886e-06 0.0085749)
(0.00891848 -1.09979e-05 -0.00225501 0.00891832 -7.39349e-06 0.0089206)
(0.00925709 -1.0224e-05 -0.0023565 0.00925694 -8.03368e-06 0.00925937)
(0.00958896 -9.49792e-06 -0.00245651 0.00958882 -8.65923e-06 0.00959142)
(0.0099141 -8.81539e-06 -0.002555 0.00991397 -9.27004e-06 0.00991673)
(0.0102326 -8.17364e-06 -0.00265192 0.0102325 -9.86541e-06 0.0102354)
(0.0105442 -7.56965e-06 -0.00274719 0.0105441 -1.04438e-05 0.0105472)
(0.010849 -7.00031e-06 -0.00284076 0.0108489 -1.1003e-05 0.0108522)
(0.0111468 -6.46331e-06 -0.00293251 0.0111467 -1.1539e-05 0.0111501)
(0.0114372 -5.95624e-06 -0.00302232 0.0114372 -1.20465e-05 0.0114408)
(0.0117201 -5.47723e-06 -0.0031101 0.01172 -1.25181e-05 0.0117239)
(0.011995 -5.02395e-06 -0.00319564 0.0119949 -1.29448e-05 0.0119989)
(0.0122616 -4.59511e-06 -0.00327885 0.0122615 -1.33151e-05 0.0122657)
(0.0125193 -4.18878e-06 -0.00335953 0.0125193 -1.36155e-05 0.0125236)
(0.0127677 -3.80367e-06 -0.00343747 0.0127677 -1.383e-05 0.0127722)
(0.0130062 -3.4389e-06 -0.00351244 0.0130062 -1.39411e-05 0.0130108)
(0.013234 -3.09249e-06 -0.00358427 0.0132341 -1.39294e-05 0.0132389)
(0.0134507 -2.764e-06 -0.00365267 0.0134507 -1.37739e-05 0.0134557)
(0.0136552 -2.4524e-06 -0.00371736 0.0136552 -1.34533e-05 0.0136604)
(0.0138468 -2.1564e-06 -0.00377807 0.0138469 -1.29466e-05 0.0138521)
(0.0140246 -1.87455e-06 -0.00383448 0.0140246 -1.22357e-05 0.01403)
(0.0141873 -1.60591e-06 -0.00388622 0.0141874 -1.13055e-05 0.0141929)
(0.014334 -1.34884e-06 -0.00393287 0.0143341 -1.01479e-05 0.0143397)
(0.014463 -1.10049e-06 -0.00397396 0.0144631 -8.76053e-06 0.0144688)
(0.0145727 -8.5824e-07 -0.00400893 0.0145728 -7.15119e-06 0.0145785)
(0.0146605 -6.18383e-07 -0.00403693 0.0146606 -5.33077e-06 0.0146665)
(0.0147234 -3.76227e-07 -0.00405703 0.0147236 -3.32014e-06 0.0147294)
(0.0147575 -1.26969e-07 -0.00406791 0.0147577 -1.13591e-06 0.0147636)
(0.000890053 -8.26826e-05 -2.60286e-05 0.000890051 -4.44353e-10 0.000890056)
(0.000804701 -6.71919e-05 -6.71919e-05 0.000804699 -9.86853e-09 0.000804699)
(0.000821401 -6.11331e-05 -0.000106058 0.000821414 -1.57538e-08 0.000821385)
(0.000912655 -5.76024e-05 -0.000146882 0.000912687 -1.88369e-08 0.000912618)
(0.00106018 -5.60551e-05 -0.000193483 0.00106023 -1.68516e-08 0.00106011)
(0.00124948 -5.55621e-05 -0.000247382 0.00124955 -8.50249e-09 0.00124939)
(0.00146875 -5.53351e-05 -0.0003083 0.00146882 1.17975e-09 0.00146867)
(0.00170853 -5.48889e-05 -0.000375138 0.00170857 -1.18711e-09 0.00170848)
(0.0019614 -5.39944e-05 -0.00044657 0.00196137 -3.39018e-08 0.00196141)
(0.00222163 -5.25919e-05 -0.000521309 0.0022215 -1.1393e-07 0.00222174)
(0.00248491 -5.07249e-05 -0.000598216 0.00248467 -2.52638e-07 0.00248512)
(0.00274801 -4.84918e-05 -0.000676341 0.00274767 -4.54397e-07 0.00274831)
(0.00300864 -4.60059e-05 -0.000754922 0.00300821 -7.17173e-07 0.00300901)
(0.00326522 -4.33768e-05 -0.000833376 0.00326473 -1.03415e-06 0.00326563)
(0.00351676 -4.07005e-05 -0.000911287 0.00351623 -1.39567e-06 0.00351719)
(0.00376273 -3.80514e-05 -0.000988373 0.00376219 -1.79098e-06 0.00376315)
(0.00400296 -3.54812e-05 -0.00106445 0.00400242 -2.20961e-06 0.00400334)
(0.00423744 -3.3025e-05 -0.00113945 0.00423693 -2.64225e-06 0.00423777)
(0.00446639 -3.07032e-05 -0.00121331 0.0044659 -3.08117e-06 0.00446665)
(0.00469004 -2.85224e-05 -0.00128604 0.00468959 -3.52047e-06 0.00469023)
(0.0049087 -2.64832e-05 -0.00135764 0.00490828 -3.95588e-06 0.0049088)
(0.00512264 -2.45812e-05 -0.00142818 0.00512226 -4.38459e-06 0.00512266)
(0.00533214 -2.28083e-05 -0.00149767 0.00533179 -4.80498e-06 0.00533207)
(0.00553742 -2.1156e-05 -0.00156614 0.0055371 -5.21619e-06 0.00553725)
(0.00573866 -1.9615e-05 -0.00163357 0.00573838 -5.61782e-06 0.0057384)
(0.00593601 -1.81757e-05 -0.00170003 0.00593575 -6.0099e-06 0.00593564)
(0.00612955 -1.68304e-05 -0.00176547 0.00612931 -6.39217e-06 0.00612908)
(0.00631933 -1.55714e-05 -0.0018299 0.00631911 -6.76426e-06 0.00631875)
(0.00650534 -1.43908e-05 -0.00189326 0.00650515 -7.1253e-06 0.00650465)
(0.0066876 -1.32832e-05 -0.00195555 0.00668742 -7.4737e-06 0.00668679)
(0.0068659 -1.22423e-05 -0.00201669 0.00686574 -7.80709e-06 0.00686497)
(0.00704026 -1.12643e-05 -0.00207661 0.00704013 -8.12208e-06 0.00703921)
(0.00721043 -1.03407e-05 -0.00213528 0.00721032 -8.41425e-06 0.00720925)
(0.00737627 -9.47086e-06 -0.00219256 0.00737618 -8.67758e-06 0.00737495)
(0.00753751 -8.65438e-06 -0.00224838 0.00753744 -8.90508e-06 0.00753605)
(0.00769382 -7.87909e-06 -0.0023026 0.00769377 -9.08783e-06 0.00769221)
(0.00784486 -7.14402e-06 -0.00235509 0.00784484 -9.21562e-06 0.00784311)
(0.0079903 -6.45236e-06 -0.00240573 0.0079903 -9.27707e-06 0.0079884)
(0.00812974 -5.79883e-06 -0.00245431 0.00812977 -9.25937e-06 0.00812769)
(0.00826264 -5.17869e-06 -0.00250072 0.00826271 -9.14886e-06 0.00826045)
(0.00838848 -4.59154e-06 -0.0025447 0.00838858 -8.93125e-06 0.00838614)
(0.00850672 -4.03361e-06 -0.00258606 0.00850685 -8.5926e-06 0.00850424)
(0.00861669 -3.50466e-06 -0.00262456 0.00861684 -8.12044e-06 0.00861407)
(0.00871765 -3.00184e-06 -0.00265995 0.00871784 -7.50445e-06 0.00871491)
(0.00880882 -2.51982e-06 -0.00269191 0.00880903 -6.73849e-06 0.00880596)
(0.00888918 -2.05581e-06 -0.00272012 0.00888941 -5.8202e-06 0.00888621)
(0.00895753 -1.60293e-06 -0.00274414 0.00895778 -4.75378e-06 0.00895448)
(0.00901235 -1.15362e-06 -0.00276341 0.00901262 -3.54587e-06 0.00900923)
(0.0090517 -7.02393e-07 -0.00277724 0.00905197 -2.20964e-06 0.00904853)
(0.00907304 -2.378e-07 -0.00278475 0.00907331 -7.56086e-07 0.00906984)
(0.00102275 -0.000130996 -2.41139e-05 0.00102274 3.3392e-09 0.00102276)
(0.000821401 -0.000106058 -6.11331e-05 0.000821385 -1.57538e-08 0.000821414)
(0.000755466 -9.78709e-05 -9.78709e-05 0.000755467 -2.90763e-08 0.000755467)
(0.000780686 -9.2938e-05 -0.000137131 0.000780706 -3.93212e-08 0.000780669)
(0.000869652 -9.0346e-05 -0.000181518 0.000869692 -4.474e-08 0.000869616)
(0.00100398 -8.93201e-05 -0.000233086 0.00100403 -4.60942e-08 0.00100394)
(0.00117044 -8.88895e-05 -0.000292215 0.00117047 -5.26657e-08 0.00117043)
(0.0013591 -8.82797e-05 -0.000358036 0.00135907 -8.19245e-08 0.00135916)
(0.00156243 -8.70445e-05 -0.000429157 0.00156229 -1.52896e-07 0.00156261)
(0.00177467 -8.50224e-05 -0.00050412 0.00177438 -2.78456e-07 0.00177499)
(0.00199141 -8.22399e-05 -0.000581605 0.00199098 -4.62723e-07 0.00199189)
(0.00220946 -7.88294e-05 -0.000660509 0.00220888 -7.02603e-07 0.00221007)
(0.00242648 -7.49651e-05 -0.000739958 0.00242578 -9.90678e-07 0.00242719)
(0.00264092 -7.08257e-05 -0.000819314 0.00264014 -1.31781e-06 0.00264168)
(0.00285181 -6.65705e-05 -0.000898127 0.00285098 -1.67483e-06 0.00285258)
(0.00305862 -6.23223e-05 -0.000976125 0.00305777 -2.0534e-06 0.00305935)
(0.00326116 -5.81839e-05 -0.00105314 0.00326033 -2.44638e-06 0.00326183)
(0.00345948 -5.42117e-05 -0.0011291 0.00345868 -2.84782e-06 0.00346004)
(0.00365374 -5.04371e-05 -0.00120399 0.00365298 -3.25299e-06 0.00365418)
(0.00384418 -4.68802e-05 -0.00127786 0.00384348 -3.65817e-06 0.0038445)
(0.00403109 -4.35503e-05 -0.00135073 0.00403043 -4.06067e-06 0.00403126)
(0.00421472 -4.04429e-05 -0.00142267 0.00421412 -4.45858e-06 0.00421474)
(0.00439533 -3.75395e-05 -0.00149371 0.00439478 -4.85065e-06 0.0043952)
(0.00457311 -3.48318e-05 -0.00156393 0.00457261 -5.2362e-06 0.00457283)
(0.00474826 -3.23042e-05 -0.00163334 0.0047478 -5.61482e-06 0.00474782)
(0.00492087 -2.99421e-05 -0.00170194 0.00492045 -5.98615e-06 0.00492028)
(0.00509105 -2.7735e-05 -0.00176976 0.00509067 -6.34991e-06 0.00509029)
(0.00525882 -2.56658e-05 -0.00183679 0.00525848 -6.70544e-06 0.0052579)
(0.00542419 -2.37281e-05 -0.00190303 0.00542387 -7.05185e-06 0.0054231)
(0.00558711 -2.191e-05 -0.00196839 0.00558683 -7.38745e-06 0.00558585)
(0.00574748 -2.01968e-05 -0.00203284 0.00574723 -7.70997e-06 0.00574605)
(0.00590518 -1.85901e-05 -0.00209636 0.00590496 -8.0161e-06 0.00590358)
(0.00606004 -1.70769e-05 -0.0021588 0.00605986 -8.30145e-06 0.00605826)
(0.00621184 -1.56455e-05 -0.00222008 0.00621169 -8.56031e-06 0.00620987)
(0.0063603 -1.42952e-05 -0.00228008 0.00636019 -8.78567e-06 0.00635815)
(0.00650511 -1.30233e-05 -0.00233867 0.00650504 -8.96898e-06 0.00650277)
(0.00664589 -1.18177e-05 -0.00239568 0.00664586 -9.10003e-06 0.00664335)
(0.00678223 -1.06745e-05 -0.00245095 0.00678225 -9.16741e-06 0.00677951)
(0.00691362 -9.59583e-06 -0.00250425 0.00691368 -9.15818e-06 0.0069107)
(0.0070396 -8.57433e-06 -0.00255538 0.00703971 -9.05852e-06 0.00703649)
(0.00715951 -7.60299e-06 -0.00260405 0.00715968 -8.85371e-06 0.00715622)
(0.00727275 -6.68306e-06 -0.00265005 0.00727297 -8.52934e-06 0.00726928)
(0.00737853 -5.80906e-06 -0.00269305 0.0073788 -8.07225e-06 0.00737488)
(0.0074761 -4.97612e-06 -0.00273269 0.00747641 -7.47114e-06 0.00747229)
(0.00756446 -4.17932e-06 -0.00276865 0.00756482 -6.71896e-06 0.00756051)
(0.00764263 -3.41045e-06 -0.00280045 0.00764302 -5.81229e-06 0.00763855)
(0.00770926 -2.66089e-06 -0.00282759 0.00770968 -4.75419e-06 0.00770507)
(0.00776288 -1.91707e-06 -0.00284941 0.00776332 -3.55082e-06 0.0077586)
(0.00780136 -1.16674e-06 -0.00286509 0.00780182 -2.21469e-06 0.00779702)
(0.0078223 -3.94419e-07 -0.00287358 0.00782276 -7.57914e-07 0.00781794)
(0.00122937 -0.000186653 -2.38478e-05 0.00122935 1.55528e-08 0.00122939)
(0.000912655 -0.000146882 -5.76024e-05 0.000912618 -1.88369e-08 0.000912687)
(0.000780686 -0.000137131 -9.2938e-05 0.000780669 -3.93212e-08 0.000780706)
(0.000769453 -0.000135893 -0.000135893 0.000769454 -5.34684e-08 0.000769454)
(0.000839881 -0.000138261 -0.000188306 0.000839895 -5.76645e-08 0.000839865)
(0.000967116 -0.000141772 -0.000250817 0.000967121 -5.07142e-08 0.000967104)
(0.0011344 -0.000145021 -0.000323235 0.00113435 -5.00187e-08 0.00113443)
(0.00132973 -0.000147064 -0.000404359 0.00132955 -8.90985e-08 0.00132987)
(0.00154406 -0.00014738 -0.000492383 0.00154369 -1.98545e-07 0.00154436)
(0.00177051 -0.00014583 -0.000585367 0.00176991 -3.91378e-07 0.001771)
(0.00200381 -0.000142548 -0.000681542 0.00200296 -6.63097e-07 0.00200446)
(0.00223999 -0.00013782 -0.000779436 0.00223892 -9.98883e-07 0.00224077)
(0.00247623 -0.000132004 -0.000877895 0.00247498 -1.38095e-06 0.00247707)
(0.00271058 -0.000125462 -0.00097612 0.0027092 -1.79335e-06 0.00271142)
(0.00294182 -0.000118518 -0.00107353 0.00294038 -2.2242e-06 0.00294259)
(0.00316927 -0.000111434 -0.0011698 0.00316781 -2.66553e-06 0.00316991)
(0.00339267 -0.000104391 -0.00126477 0.00339124 -3.11246e-06 0.00339313)
(0.00361201 -9.75344e-05 -0.00135835 0.00361063 -3.56192e-06 0.00361226)
(0.00382744 -9.09661e-05 -0.00145059 0.00382613 -4.01198e-06 0.00382745)
(0.00403922 -8.47242e-05 -0.00154153 0.004038 -4.4612e-06 0.00403897)
(0.00424763 -7.88337e-05 -0.00163128 0.00424649 -4.90832e-06 0.00424712)
(0.00445296 -7.32957e-05 -0.00171987 0.00445192 -5.35229e-06 0.0044522)
(0.00465548 -6.81005e-05 -0.00180742 0.00465452 -5.79219e-06 0.00465446)
(0.00485539 -6.32409e-05 -0.00189401 0.00485452 -6.22732e-06 0.00485413)
(0.00505289 -5.86877e-05 -0.00197967 0.00505209 -6.65695e-06 0.0050514)
(0.00524811 -5.44176e-05 -0.00206443 0.00524738 -7.08045e-06 0.00524639)
(0.00544112 -5.04209e-05 -0.00214835 0.00544046 -7.49702e-06 0.00543918)
(0.00563196 -4.6678e-05 -0.00223137 0.00563136 -7.90561e-06 0.00562982)
(0.00582062 -4.31569e-05 -0.00231353 0.00582007 -8.30485e-06 0.00581827)
(0.00600701 -3.98443e-05 -0.00239472 0.00600652 -8.69269e-06 0.00600447)
(0.00619104 -3.67356e-05 -0.00247494 0.00619061 -9.06628e-06 0.00618831)
(0.00637253 -3.38071e-05 -0.0025541 0.00637216 -9.42174e-06 0.00636961)
(0.00655127 -3.104e-05 -0.00263207 0.00655095 -9.75383e-06 0.00654817)
(0.00672698 -2.84349e-05 -0.0027087 0.00672672 -1.00562e-05 0.0067237)
(0.00689928 -2.59787e-05 -0.00278391 0.00689909 -1.03207e-05 0.00689583)
(0.00706778 -2.36557e-05 -0.00285747 0.00706767 -1.05372e-05 0.00706415)
(0.00723208 -2.14557e-05 -0.00292917 0.00723204 -1.06941e-05 0.00722828)
(0.00739157 -1.93768e-05 -0.00299879 0.00739162 -1.07775e-05 0.00738761)
(0.00754573 -1.74104e-05 -0.00306608 0.00754587 -1.07724e-05 0.0075416)
(0.00769383 -1.55448e-05 -0.00313072 0.00769405 -1.06622e-05 0.00768953)
(0.00783511 -1.37826e-05 -0.00319236 0.00783543 -1.04295e-05 0.00783066)
(0.0079688 -1.211e-05 -0.00325071 0.00796921 -1.00564e-05 0.00796419)
(0.00809395 -1.0521e-05 -0.0033053 0.00809445 -9.52724e-06 0.00808919)
(0.0082095 -9.01146e-06 -0.00335576 0.00821009 -8.82755e-06 0.00820461)
(0.00831438 -7.56603e-06 -0.00340149 0.00831505 -7.94799e-06 0.00830937)
(0.00840719 -6.17272e-06 -0.00344202 0.00840792 -6.8837e-06 0.00840208)
(0.00848647 -4.81384e-06 -0.0034766 0.00848725 -5.63699e-06 0.00848128)
(0.00855028 -3.46809e-06 -0.00350444 0.0085511 -4.21467e-06 0.00854502)
(0.00859608 -2.1096e-06 -0.00352444 0.00859693 -2.63044e-06 0.00859079)
(0.00862095 -7.11733e-07 -0.00353527 0.00862181 -9.00102e-07 0.00861564)
(0.00150025 -0.00025247 -2.43393e-05 0.00150022 4.33295e-08 0.00150029)
(0.00106018 -0.000193483 -5.60551e-05 0.00106011 -1.68516e-08 0.00106023)
(0.000869652 -0.000181518 -9.0346e-05 0.000869616 -4.474e-08 0.000869692)
(0.000839881 -0.000188306 -0.000138261 0.000839865 -5.76645e-08 0.000839895)
(0.00091707 -0.00020405 -0.00020405 0.000917065 -4.7892e-08 0.000917065)
(0.00106703 -0.00022123 -0.000286918 0.00106699 -9.80014e-10 0.00106705)
(0.00126713 -0.000235903 -0.000384313 0.00126694 6.34698e-08 0.00126725)
(0.0015016 -0.000246362 -0.000493259 0.00150114 8.07951e-08 0.00150192)
(0.0017589 -0.000252068 -0.000610678 0.00175809 -1.28445e-08 0.00175951)
(0.00203041 -0.000253179 -0.00073369 0.00202918 -2.40692e-07 0.00203133)
(0.00230965 -0.000250243 -0.000859856 0.00230803 -5.8845e-07 0.00231086)
(0.00259186 -0.000243993 -0.000987247 0.00258989 -1.0237e-06 0.00259331)
(0.00287366 -0.000235248 -0.00111444 0.00287142 -1.51189e-06 0.00287528)
(0.0031528 -0.000224759 -0.00124047 0.00315037 -2.02529e-06 0.00315449)
(0.00342786 -0.00021317 -0.0013647 0.00342534 -2.54624e-06 0.00342956)
(0.00369811 -0.000201045 -0.0014868 0.00369558 -3.06598e-06 0.00369973)
(0.00396326 -0.000188791 -0.00160664 0.00396078 -3.58184e-06 0.00396476)
(0.00422335 -0.000176699 -0.00172426 0.00422096 -4.09445e-06 0.00422469)
(0.0044786 -0.00016497 -0.00183969 0.00447633 -4.60543e-06 0.00447975)
(0.00472933 -0.000153738 -0.00195311 0.0047272 -5.1163e-06 0.00473029)
(0.00497589 -0.000143063 -0.00206467 0.00497391 -5.62779e-06 0.00497666)
(0.00521863 -0.00013298 -0.00217449 0.00521681 -6.13981e-06 0.00521924)
(0.00545789 -0.000123504 -0.00228272 0.00545622 -6.65168e-06 0.00545835)
(0.00569394 -0.000114599 -0.00238951 0.00569241 -7.16225e-06 0.00569429)
(0.00592701 -0.000106231 -0.00249489 0.0059256 -7.67016e-06 0.00592725)
(0.00615726 -9.83984e-05 -0.00259898 0.00615597 -8.17373e-06 0.00615743)
(0.00638479 -9.10578e-05 -0.00270182 0.00638363 -8.67158e-06 0.00638492)
(0.00660967 -8.41595e-05 -0.0028034 0.0066086 -9.16124e-06 0.00660977)
(0.00683189 -7.76873e-05 -0.00290372 0.00683093 -9.64062e-06 0.00683198)
(0.00705138 -7.16133e-05 -0.0030028 0.00705052 -1.01071e-05 0.00705149)
(0.00726794 -6.59081e-05 -0.00310053 0.00726718 -1.05567e-05 0.00726807)
(0.00748156 -6.0545e-05 -0.00319681 0.00748091 -1.09847e-05 0.00748173)
(0.00769185 -5.54933e-05 -0.00329156 0.0076913 -1.13853e-05 0.00769206)
(0.00789846 -5.07394e-05 -0.00338467 0.00789802 -1.17504e-05 0.00789871)
(0.00810114 -4.62657e-05 -0.00347588 0.00810082 -1.20708e-05 0.00810144)
(0.00829935 -4.20419e-05 -0.00356505 0.00829916 -1.23351e-05 0.00829969)
(0.00849249 -3.80615e-05 -0.0036519 0.00849244 -1.2529e-05 0.00849287)
(0.00867996 -3.43074e-05 -0.0037362 0.00868005 -1.26374e-05 0.00868038)
(0.00886117 -3.07657e-05 -0.00381758 0.00886141 -1.26415e-05 0.00886162)
(0.00903524 -2.74223e-05 -0.00389575 0.00903565 -1.25227e-05 0.00903571)
(0.00920125 -2.42658e-05 -0.00397028 0.00920182 -1.22599e-05 0.00920173)
(0.00935832 -2.12852e-05 -0.00404075 0.00935906 -1.1832e-05 0.00935882)
(0.00950533 -1.84654e-05 -0.00410671 0.00950623 -1.12198e-05 0.00950583)
(0.00964108 -1.57901e-05 -0.00416754 0.00964213 -1.04059e-05 0.00964159)
(0.00976423 -1.32381e-05 -0.00422275 0.00976542 -9.37869e-06 0.00976475)
(0.00987332 -1.07894e-05 -0.0042716 0.00987463 -8.13117e-06 0.00987385)
(0.00996635 -8.4074e-06 -0.00431332 0.00996775 -6.66505e-06 0.0099669)
(0.0100412 -6.05357e-06 -0.00434685 0.0100427 -4.98787e-06 0.0100418)
(0.010095 -3.67945e-06 -0.00437095 0.0100965 -3.11474e-06 0.0100956)
(0.0101242 -1.2413e-06 -0.00438401 0.0101258 -1.06574e-06 0.0101248)
(0.001823 -0.000328795 -2.5036e-05 0.00182297 9.22049e-08 0.00182306)
(0.00124948 -0.000247382 -5.55621e-05 0.00124939 -8.50249e-09 0.00124955)
(0.00100398 -0.000233086 -8.93201e-05 0.00100394 -4.60942e-08 0.00100403)
(0.000967116 -0.000250817 -0.000141772 0.000967104 -5.07142e-08 0.000967121)
(0.00106703 -0.000286918 -0.00022123 0.00106705 -9.80014e-10 0.00106699)
(0.00125729 -0.000327127 -0.000327127 0.00125727 1.5214e-07 0.00125727)
(0.00150712 -0.000362466 -0.000454148 0.00150687 4.07555e-07 0.00150731)
(0.00179559 -0.000389053 -0.000596299 0.00179486 6.61278e-07 0.00179623)
(0.0021081 -0.000405895 -0.000748323 0.00210671 7.83979e-07 0.00210937)
(0.00243424 -0.000413504 -0.000905882 0.00243214 7.14406e-07 0.00243622)
(0.00276659 -0.000413104 -0.0010657 0.00276383 4.61516e-07 0.00276926)
(0.00309994 -0.000406153 -0.0012253 0.00309661 6.89272e-08 0.00310323)
(0.00343074 -0.00039418 -0.00138311 0.00342699 -4.12682e-07 0.00343455)
(0.00375671 -0.000378559 -0.00153801 0.0037527 -9.41246e-07 0.00376095)
(0.00407658 -0.000360514 -0.00168948 0.00407243 -1.48943e-06 0.00408113)
(0.00438972 -0.000341073 -0.00183729 0.00438555 -2.04388e-06 0.00439449)
(0.004696 -0.000320999 -0.00198142 0.0046919 -2.60109e-06 0.0047009)
(0.00499559 -0.000300864 -0.00212198 0.00499164 -3.1629e-06 0.00500057)
(0.00528887 -0.000281117 -0.00225923 0.00528511 -3.73278e-06 0.00529389)
(0.00557628 -0.000262033 -0.00239339 0.00557275 -4.31373e-06 0.00558132)
(0.00585832 -0.00024376 -0.00252475 0.00585503 -4.90713e-06 0.00586337)
(0.00613543 -0.000226398 -0.00265356 0.00613238 -5.51266e-06 0.00614049)
(0.00640803 -0.000210004 -0.00277998 0.00640523 -6.12845e-06 0.00641312)
(0.00667648 -0.000194566 -0.00290422 0.00667391 -6.75171e-06 0.00668161)
(0.00694112 -0.000180047 -0.00302647 0.00693877 -7.37906e-06 0.00694631)
(0.0072021 -0.000166432 -0.00314685 0.00719994 -8.00647e-06 0.00720736)
(0.0074596 -0.000153662 -0.00326542 0.00745764 -8.63031e-06 0.00746496)
(0.0077137 -0.000141703 -0.00338222 0.00771192 -9.2471e-06 0.00771917)
(0.00796454 -0.000130499 -0.00349732 0.00796293 -9.85207e-06 0.00797013)
(0.00821191 -0.000119985 -0.00361068 0.00821047 -1.04415e-05 0.00821762)
(0.00845574 -0.000110132 -0.00372233 0.00845447 -1.10099e-05 0.00846159)
(0.00869597 -0.000100895 -0.00383209 0.00869488 -1.15521e-05 0.00870195)
(0.00893221 -9.22293e-05 -0.00393991 0.00893129 -1.20604e-05 0.0089383)
(0.00916411 -8.40935e-05 -0.00404565 0.00916338 -1.25264e-05 0.00917031)
(0.00939141 -7.64609e-05 -0.00414914 0.00939088 -1.29392e-05 0.00939771)
(0.00961345 -6.93014e-05 -0.00425012 0.00961313 -1.32868e-05 0.00961983)
(0.00982968 -6.25662e-05 -0.00434845 0.00982959 -1.35538e-05 0.00983612)
(0.0100395 -5.62413e-05 -0.00444367 0.0100397 -1.37225e-05 0.010046)
(0.0102421 -5.03022e-05 -0.00453559 0.0102425 -1.37735e-05 0.0102486)
(0.0104366 -4.47205e-05 -0.00462371 0.0104372 -1.36849e-05 0.010443)
(0.010622 -3.94804e-05 -0.0047077 0.0106229 -1.34337e-05 0.0106285)
(0.0107973 -3.45495e-05 -0.00478703 0.0107985 -1.29968e-05 0.0108037)
(0.0109614 -2.98988e-05 -0.00486126 0.0109629 -1.23519e-05 0.0109677)
(0.0111128 -2.5517e-05 -0.00492967 0.0111145 -1.14797e-05 0.0111191)
(0.0112501 -2.13592e-05 -0.00499172 0.011252 -1.03658e-05 0.0112563)
(0.0113715 -1.73806e-05 -0.00504661 0.0113737 -9.00284e-06 0.0113778)
(0.0114752 -1.35265e-05 -0.00509343 0.0114775 -7.39077e-06 0.0114814)
(0.0115586 -9.72747e-06 -0.00513103 0.011561 -5.53813e-06 0.0115648)
(0.0116184 -5.90892e-06 -0.00515807 0.0116209 -3.46196e-06 0.0116246)
(0.011651 -1.99094e-06 -0.00517278 0.0116535 -1.18506e-06 0.0116571)
(0.00218532 -0.000414743 -2.56149e-05 0.00218531 1.5818e-07 0.00218539)
(0.00146875 -0.0003083 -5.53351e-05 0.00146867 1.17975e-09 0.00146882)
(0.00117044 -0.000292215 -8.88895e-05 0.00117043 -5.26657e-08 0.00117047)
(0.0011344 -0.000323235 -0.000145021 0.00113443 -5.00187e-08 0.00113435)
(0.00126713 -0.000384313 -0.000235903 0.00126725 6.34698e-08 0.00126694)
(0.00150712 -0.000454148 -0.000362466 0.00150731 4.07555e-07 0.00150687)
(0.00181348 -0.000517417 -0.000517417 0.00181349 1.02135e-06 0.00181349)
(0.0021594 -0.000566976 -0.000691537 0.00215876 1.748e-06 0.00216013)
(0.00252724 -0.000600883 -0.000876867 0.00252556 2.36248e-06 0.00252907)
(0.00290525 -0.000619819 -0.00106739 0.00290239 2.74056e-06 0.00290837)
(0.0032857 -0.000625623 -0.00125884 0.00328173 2.86599e-06 0.00329009)
(0.00366349 -0.000620528 -0.00144833 0.00365859 2.77506e-06 0.00366902)
(0.00403544 -0.000606843 -0.00163403 0.00402983 2.52069e-06 0.00404192)
(0.00439966 -0.000586634 -0.00181486 0.00439358 2.15288e-06 0.00440689)
(0.00475524 -0.000561828 -0.00199039 0.00474889 1.70856e-06 0.00476303)
(0.00510188 -0.000534026 -0.00216046 0.00509546 1.20991e-06 0.00511007)
(0.00543976 -0.000504455 -0.00232526 0.00543341 6.66794e-07 0.0054482)
(0.00576927 -0.000474161 -0.00248507 0.00576311 8.20456e-08 0.00577785)
(0.00609097 -0.000443902 -0.00264024 0.00608508 -5.44624e-07 0.00609959)
(0.0064055 -0.000414223 -0.00279112 0.00639993 -1.2133e-06 0.00641409)
(0.00671343 -0.000385513 -0.00293815 0.00670821 -1.92249e-06 0.00672195)
(0.00701541 -0.000357983 -0.00308164 0.00701056 -2.66833e-06 0.00702383)
(0.007312 -0.000331805 -0.00322197 0.00730751 -3.4452e-06 0.00732029)
(0.00760346 -0.000307041 -0.00335928 0.00759933 -4.24614e-06 0.00761161)
(0.00789033 -0.000283683 -0.00349398 0.00788654 -5.06334e-06 0.00789833)
(0.00817287 -0.000261736 -0.00362615 0.00816941 -5.88954e-06 0.00818072)
(0.00845128 -0.000241136 -0.00375597 0.00844813 -6.71613e-06 0.00845899)
(0.0087257 -0.000221815 -0.00388355 0.00872284 -7.53729e-06 0.00873326)
(0.00899618 -0.000203725 -0.00400891 0.00899361 -8.34479e-06 0.0090036)
(0.00926268 -0.000186819 -0.0041321 0.00926038 -9.13217e-06 0.00926994)
(0.00952524 -0.000171004 -0.00425318 0.00952322 -9.8928e-06 0.00953234)
(0.00978354 -0.000156192 -0.00437201 0.00978179 -1.06189e-05 0.00979047)
(0.0100374 -0.000142348 -0.00448858 0.010036 -1.13022e-05 0.0100442)
(0.0102866 -0.000129411 -0.00460271 0.0102854 -1.19335e-05 0.0102931)
(0.0105305 -0.000117312 -0.00471433 0.0105297 -1.25013e-05 0.0105368)
(0.0107688 -0.000105997 -0.00482311 0.0107683 -1.29921e-05 0.0107749)
(0.0110007 -9.54134e-05 -0.00492882 0.0110006 -1.33912e-05 0.0110065)
(0.0112257 -8.55131e-05 -0.0050312 0.0112258 -1.36786e-05 0.0112311)
(0.0114427 -7.62591e-05 -0.00512987 0.0114433 -1.38358e-05 0.0114478)
(0.0116511 -6.76015e-05 -0.00522452 0.0116521 -1.38384e-05 0.0116558)
(0.0118497 -5.95156e-05 -0.00531458 0.0118511 -1.36629e-05 0.0118541)
(0.0120374 -5.19532e-05 -0.00539961 0.0120392 -1.3286e-05 0.0120414)
(0.012213 -4.48593e-05 -0.00547912 0.0122152 -1.26834e-05 0.0122166)
(0.0123751 -3.81931e-05 -0.00555249 0.0123776 -1.18337e-05 0.0123783)
(0.0125219 -3.19043e-05 -0.00561892 0.0125248 -1.07218e-05 0.0125248)
(0.0126519 -2.5917e-05 -0.00567764 0.0126551 -9.33916e-06 0.0126545)
(0.0127628 -2.01371e-05 -0.00572768 0.0127662 -7.68586e-06 0.0127652)
(0.0128518 -1.44656e-05 -0.00576796 0.0128555 -5.77075e-06 0.0128541)
(0.0129159 -8.7876e-06 -0.00579686 0.0129197 -3.61346e-06 0.012918)
(0.0129506 -2.96599e-06 -0.00581257 0.0129544 -1.23813e-06 0.0129526)
(0.00257626 -0.000508909 -2.59108e-05 0.00257629 2.23159e-07 0.00257631)
(0.00170853 -0.000375138 -5.48889e-05 0.00170848 -1.18711e-09 0.00170857)
(0.0013591 -0.000358036 -8.82797e-05 0.00135916 -8.19245e-08 0.00135907)
(0.00132973 -0.000404359 -0.000147064 0.00132987 -8.90985e-08 0.00132955)
(0.0015016 -0.000493259 -0.000246362 0.00150192 8.07951e-08 0.00150114)
(0.00179559 -0.000596299 -0.000389053 0.00179623 6.61278e-07 0.00179486)
(0.0021594 -0.000691537 -0.000566976 0.00216013 1.748e-06 0.00215876)
(0.00256013 -0.000768149 -0.000768149 0.00256024 3.09485e-06 0.00256024)
(0.0029776 -0.000823079 -0.000981874 0.00297637 4.35126e-06 0.00297912)
(0.00339955 -0.00085724 -0.00120043 0.0033966 5.33632e-06 0.00340287)
(0.00381859 -0.000873055 -0.00141862 0.00381391 6.02447e-06 0.00382376)
(0.00423036 -0.000873376 -0.00163318 0.00422413 6.44585e-06 0.00423719)
(0.00463243 -0.000861113 -0.00184215 0.00462497 6.64153e-06 0.00464063)
(0.00502362 -0.000838915 -0.00204457 0.00501527 6.65024e-06 0.00503284)
(0.00540359 -0.000809195 -0.00223999 0.00539468 6.50362e-06 0.00541351)
(0.00577251 -0.000774111 -0.0024284 0.00576333 6.22414e-06 0.00578284)
(0.0061309 -0.000735423 -0.00261005 0.00612168 5.82547e-06 0.0061414)
(0.00647944 -0.000694532 -0.00278528 0.00647038 5.31569e-06 0.00648992)
(0.00681895 -0.000652694 -0.00295466 0.00681019 4.70036e-06 0.00682926)
(0.00715012 -0.000610848 -0.00311858 0.00714175 3.9854e-06 0.00716013)
(0.00747382 -0.000569662 -0.0032776 0.00746592 3.17872e-06 0.00748347)
(0.00779072 -0.000529651 -0.00343215 0.00778333 2.29039e-06 0.00779995)
(0.00810137 -0.000491145 -0.00358267 0.0080945 1.3329e-06 0.00811013)
(0.00840642 -0.000454406 -0.00372945 0.00840008 3.20036e-07 0.0084147)
(0.00870622 -0.000419552 -0.00387286 0.00870038 -7.33641e-07 0.008714)
(0.00900122 -0.000386603 -0.00401316 0.00899588 -1.81407e-06 0.0090085)
(0.00929163 -0.000355586 -0.00415051 0.00928677 -2.90793e-06 0.0092984)
(0.00957765 -0.000326465 -0.00428513 0.00957324 -4.00118e-06 0.00958391)
(0.00985941 -0.000299177 -0.00441721 0.00985543 -5.08314e-06 0.00986516)
(0.0101369 -0.000273654 -0.00454677 0.0101334 -6.14314e-06 0.0101421)
(0.0104101 -0.000249802 -0.00467368 0.010407 -7.17048e-06 0.0104149)
(0.010679 -0.000227532 -0.0047982 0.0106763 -8.15495e-06 0.0106832)
(0.0109431 -0.000206766 -0.00492012 0.0109409 -9.08701e-06 0.0109468)
(0.0112023 -0.000187411 -0.00503945 0.0112005 -9.95541e-06 0.0112054)
(0.0114561 -0.000169374 -0.00515586 0.0114547 -1.07476e-05 0.0114586)
(0.0117039 -0.000152564 -0.00526935 0.011703 -1.14509e-05 0.0117059)
(0.0119453 -0.000136907 -0.00537958 0.0119449 -1.20477e-05 0.0119466)
(0.0121793 -0.00012233 -0.00548621 0.0121795 -1.25214e-05 0.01218)
(0.0124053 -0.000108777 -0.00558901 0.012406 -1.28495e-05 0.0124053)
(0.0126222 -9.61553e-05 -0.00568751 0.0126235 -1.30101e-05 0.0126216)
(0.0128289 -8.44066e-05 -0.00578135 0.0128308 -1.29803e-05 0.0128277)
(0.0130245 -7.34812e-05 -0.0058699 0.013027 -1.27346e-05 0.0130225)
(0.0132074 -6.32914e-05 -0.00595257 0.0132104 -1.22488e-05 0.0132048)
(0.0133761 -5.37709e-05 -0.00602888 0.0133797 -1.15025e-05 0.0133729)
(0.0135292 -4.48151e-05 -0.00609804 0.0135333 -1.04793e-05 0.0135254)
(0.0136647 -3.63302e-05 -0.00615915 0.0136692 -9.16944e-06 0.0136604)
(0.0137801 -2.81948e-05 -0.0062112 0.013785 -7.57425e-06 0.0137754)
(0.0138729 -2.02315e-05 -0.00625305 0.013878 -5.70375e-06 0.0138679)
(0.0139396 -1.2269e-05 -0.00628314 0.0139449 -3.57945e-06 0.0139344)
(0.0139758 -4.13309e-06 -0.00629937 0.0139811 -1.22792e-06 0.0139705)
(0.00298662 -0.000609733 -2.58648e-05 0.00298672 2.57574e-07 0.00298664)
(0.0019614 -0.00044657 -5.39944e-05 0.00196141 -3.39018e-08 0.00196137)
(0.00156243 -0.000429157 -8.70445e-05 0.00156261 -1.52896e-07 0.00156229)
(0.00154406 -0.000492383 -0.00014738 0.00154436 -1.98545e-07 0.00154369)