/*--------------------------------*- C++ -*----------------------------------*\
| =========                 |                                                 |
| \\      /  F ield         | OpenFOAM: The Open Source CFD Toolbox           |
|  \\    /   O peration     | Version:  v1912                                 |
|   \\  /    A nd           | Website:  www.openfoam.com                      |
|    \\/     M anipulation  |                                                 |
\*---------------------------------------------------------------------------*/
FoamFile
{
    version     2.0;
    format      ascii;
    class       volVectorField;
    location    "3000";
    object      U;
}
// * * * * * * * * * * * * * * * * * * * * * * * * * * * * * * * * * * * * * //

dimensions      [0 1 -1 0 0 0 0];


internalField   nonuniform List<vector> 
2500
(
(0.000968272 -1.8028e-08 -1.8028e-08)
(0.00237823 -1.4945e-08 -5.62883e-08)
(0.00376043 -2.0887e-07 -1.38467e-07)
(0.00515752 -6.99066e-07 -2.54046e-07)
(0.00658907 -1.66301e-06 -4.3021e-07)
(0.00806021 -3.18355e-06 -7.27219e-07)
(0.00956676 -5.0806e-06 -1.21932e-06)
(0.0110994 -6.87924e-06 -1.96212e-06)
(0.0126464 -7.93325e-06 -2.96638e-06)
(0.0141959 -7.62817e-06 -4.20374e-06)
(0.0157369 -5.54148e-06 -5.62716e-06)
(0.01726 -1.51029e-06 -7.18932e-06)
(0.0187577 4.38334e-06 -8.85343e-06)
(0.0202248 1.18777e-05 -1.05965e-05)
(0.0216577 2.06131e-05 -1.24074e-05)
(0.0230546 3.02045e-05 -1.42832e-05)
(0.024415 4.02944e-05 -1.62248e-05)
(0.0257393 5.05828e-05 -1.82347e-05)
(0.0270286 6.08395e-05 -2.03145e-05)
(0.0282842 7.09025e-05 -2.24648e-05)
(0.0295076 8.06699e-05 -2.46841e-05)
(0.0307003 9.00872e-05 -2.69697e-05)
(0.0318637 9.91349e-05 -2.93174e-05)
(0.032999 0.000107816 -3.1722e-05)
(0.0341071 0.000116146 -3.41776e-05)
(0.0351888 0.000124143 -3.66779e-05)
(0.0362446 0.000131825 -3.92161e-05)
(0.0372747 0.000139199 -4.17849e-05)
(0.0382793 0.000146259 -4.43771e-05)
(0.0392582 0.000152985 -4.69849e-05)
(0.0402111 0.000159337 -4.96003e-05)
(0.0411375 0.000165253 -5.22151e-05)
(0.0420367 0.000170645 -5.48206e-05)
(0.0429079 0.000175404 -5.74075e-05)
(0.0437499 0.00017939 -5.99663e-05)
(0.0445617 0.000182436 -6.24867e-05)
(0.0453416 0.000184347 -6.4958e-05)
(0.0460883 0.000184908 -6.73691e-05)
(0.0467999 0.000183887 -6.97081e-05)
(0.0474744 0.000181029 -7.19624e-05)
(0.0481098 0.000176079 -7.4119e-05)
(0.0487037 0.000168786 -7.61642e-05)
(0.0492535 0.000158938 -7.80836e-05)
(0.049756 0.000146363 -7.98614e-05)
(0.050208 0.000130979 -8.14804e-05)
(0.0506051 0.000112766 -8.29199e-05)
(0.0509419 9.18357e-05 -8.41558e-05)
(0.0512115 6.8328e-05 -8.51562e-05)
(0.0514047 4.24958e-05 -8.58828e-05)
(0.0515092 1.45278e-05 -8.61963e-05)
(0.00237823 -5.62883e-08 -1.49449e-08)
(0.00608104 1.7772e-07 1.7772e-07)
(0.00978181 5.03728e-08 5.33736e-07)
(0.0135205 -5.91374e-07 1.08595e-06)
(0.017306 -2.02515e-06 1.72536e-06)
(0.0211348 -4.35041e-06 2.15515e-06)
(0.0249942 -7.13326e-06 2.01945e-06)
(0.0288653 -9.34926e-06 1.09223e-06)
(0.032726 -9.65707e-06 -5.97941e-07)
(0.0365539 -6.82132e-06 -2.81345e-06)
(0.040328 -2.82877e-08 -5.23765e-06)
(0.0440309 1.09913e-05 -7.58896e-06)
(0.0476493 2.60024e-05 -9.68146e-06)
(0.0511741 4.44042e-05 -1.14353e-05)
(0.0546001 6.53993e-05 -1.28551e-05)
(0.0579257 8.81449e-05 -1.39972e-05)
(0.0611517 0.000111862 -1.49401e-05)
(0.0642807 0.000135898 -1.57626e-05)
(0.0673166 0.000159752 -1.65318e-05)
(0.0702639 0.000183074 -1.72982e-05)
(0.0731269 0.000205643 -1.80952e-05)
(0.0759101 0.000227343 -1.89416e-05)
(0.0786173 0.000248135 -1.98448e-05)
(0.0812519 0.000268029 -2.08043e-05)
(0.0838167 0.000287061 -2.18137e-05)
(0.086314 0.000305277 -2.28637e-05)
(0.0887452 0.000322717 -2.39436e-05)
(0.0911117 0.000339399 -2.50417e-05)
(0.0934139 0.000355314 -2.61468e-05)
(0.0956519 0.000370415 -2.72481e-05)
(0.0978255 0.00038461 -2.83357e-05)
(0.0999337 0.000397761 -2.94004e-05)
(0.101976 0.00040967 -3.0434e-05)
(0.103949 0.000420083 -3.14292e-05)
(0.105853 0.00042868 -3.23795e-05)
(0.107685 0.000435078 -3.32797e-05)
(0.109441 0.00043883 -3.41255e-05)
(0.111118 0.000439437 -3.49148e-05)
(0.112714 0.000436361 -3.56452e-05)
(0.114224 0.000429015 -3.63158e-05)
(0.115644 0.000416805 -3.69281e-05)
(0.116969 0.000399152 -3.74848e-05)
(0.118193 0.000375559 -3.79905e-05)
(0.119311 0.000345624 -3.845e-05)
(0.120315 0.000309144 -3.88683e-05)
(0.121196 0.000266067 -3.92473e-05)
(0.121943 0.000216637 -3.95864e-05)
(0.12254 0.000161168 -3.98755e-05)
(0.122967 0.000100235 -4.01016e-05)
(0.123199 3.42646e-05 -4.01063e-05)
(0.00376043 -1.38467e-07 -2.0887e-07)
(0.00978181 5.33736e-07 5.03729e-08)
(0.0159026 7.59296e-07 7.59296e-07)
(0.0221401 4.54409e-07 1.89875e-06)
(0.0284769 -5.9857e-07 3.17903e-06)
(0.034882 -2.4113e-06 3.86156e-06)
(0.0413192 -4.28715e-06 3.1117e-06)
(0.0477517 -4.74981e-06 4.83794e-07)
(0.0541429 -1.9629e-06 -3.83572e-06)
(0.0604584 5.67014e-06 -9.18581e-06)
(0.0666679 1.91175e-05 -1.47547e-05)
(0.0727466 3.86056e-05 -1.98466e-05)
(0.0786762 6.37037e-05 -2.40157e-05)
(0.0844443 9.35161e-05 -2.70828e-05)
(0.0900448 0.000126905 -2.90786e-05)
(0.0954761 0.000162683 -3.01614e-05)
(0.10074 0.000199757 -3.05433e-05)
(0.105843 0.000237208 -3.0437e-05)
(0.11079 0.000274325 -3.00248e-05)
(0.115589 0.000310605 -2.94467e-05)
(0.120246 0.000345726 -2.87994e-05)
(0.12477 0.000379515 -2.81419e-05)
(0.129166 0.000411906 -2.75043e-05)
(0.13344 0.000442906 -2.68954e-05)
(0.137596 0.000472564 -2.63103e-05)
(0.141638 0.00050094 -2.57358e-05)
(0.145568 0.000528084 -2.51549e-05)
(0.149389 0.00055402 -2.45492e-05)
(0.1531 0.000578726 -2.39013e-05)
(0.156704 0.000602125 -2.31951e-05)
(0.160198 0.000624072 -2.24175e-05)
(0.163582 0.000644346 -2.15576e-05)
(0.166855 0.000662638 -2.06079e-05)
(0.170014 0.000678546 -1.95636e-05)
(0.173055 0.000691569 -1.84234e-05)
(0.175976 0.000701102 -1.71893e-05)
(0.178773 0.00070644 -1.5868e-05)
(0.18144 0.000706793 -1.44711e-05)
(0.183972 0.000701306 -1.30121e-05)
(0.186365 0.000689051 -1.15088e-05)
(0.188611 0.00066908 -9.98587e-06)
(0.190703 0.000640473 -8.47334e-06)
(0.192634 0.000602432 -7.00651e-06)
(0.194394 0.000554305 -5.62353e-06)
(0.195973 0.000495754 -4.36484e-06)
(0.197357 0.000426677 -3.26695e-06)
(0.198529 0.000347434 -2.36291e-06)
(0.199466 0.00025851 -1.67044e-06)
(0.200136 0.000160793 -1.20652e-06)
(0.200499 5.4963e-05 -9.28344e-07)
(0.00515752 -2.54046e-07 -6.99066e-07)
(0.0135205 1.08595e-06 -5.91374e-07)
(0.0221401 1.89875e-06 4.54409e-07)
(0.0309761 2.15995e-06 2.15995e-06)
(0.0399658 1.8353e-06 3.96331e-06)
(0.0490421 1.2378e-06 4.6436e-06)
(0.0581391 1.52849e-06 2.79121e-06)
(0.0671969 4.64376e-06 -2.20954e-06)
(0.0761632 1.27034e-05 -9.78785e-06)
(0.0849937 2.73171e-05 -1.8617e-05)
(0.0936519 4.92624e-05 -2.72363e-05)
(0.10211 7.84836e-05 -3.44795e-05)
(0.110347 0.000114255 -3.96569e-05)
(0.118351 0.000155414 -4.25487e-05)
(0.126116 0.00020059 -4.32903e-05)
(0.133643 0.000248399 -4.22275e-05)
(0.140936 0.000297579 -3.97882e-05)
(0.148001 0.00034707 -3.63924e-05)
(0.154848 0.000396047 -3.24006e-05)
(0.161487 0.000443916 -2.80925e-05)
(0.167927 0.00049029 -2.36672e-05)
(0.174178 0.000534951 -1.92525e-05)
(0.180247 0.00057781 -1.49209e-05)
(0.186142 0.000618862 -1.0704e-05)
(0.191869 0.000658154 -6.60598e-06)
(0.197432 0.000695747 -2.61399e-06)
(0.202834 0.000731692 1.29388e-06)
(0.208079 0.000766006 5.14327e-06)
(0.213168 0.000798649 8.95996e-06)
(0.2181 0.000829513 1.27677e-05)
(0.222875 0.000858398 1.65868e-05)
(0.227493 0.000885007 2.04335e-05)
(0.23195 0.000908925 2.43196e-05)
(0.236243 0.000929616 2.8252e-05)
(0.24037 0.00094641 3.22326e-05)
(0.244326 0.000958497 3.62571e-05)
(0.248106 0.000964933 4.03139e-05)
(0.251703 0.000964654 4.4382e-05)
(0.255113 0.000956509 4.84367e-05)
(0.258327 0.000939247 5.24492e-05)
(0.261338 0.00091159 5.63767e-05)
(0.264139 0.000872291 6.01661e-05)
(0.266718 0.000820263 6.37556e-05)
(0.269066 0.000754615 6.70772e-05)
(0.271169 0.000674861 7.00597e-05)
(0.27301 0.000580845 7.26378e-05)
(0.274567 0.000473012 7.47545e-05)
(0.27581 0.000351997 7.63779e-05)
(0.276699 0.000218965 7.74796e-05)
(0.277179 7.4841e-05 7.79541e-05)
(0.00658907 -4.3021e-07 -1.66301e-06)
(0.017306 1.72536e-06 -2.02515e-06)
(0.0284769 3.17903e-06 -5.9857e-07)
(0.0399658 3.96331e-06 1.8353e-06)
(0.0516246 4.11496e-06 4.11496e-06)
(0.0633361 4.29171e-06 4.52043e-06)
(0.0750069 6.52521e-06 1.21014e-06)
(0.0865622 1.35768e-05 -6.43736e-06)
(0.0979431 2.77719e-05 -1.72794e-05)
(0.109104 5.03405e-05 -2.92327e-05)
(0.120011 8.14656e-05 -4.02308e-05)
(0.13064 0.000120553 -4.8753e-05)
(0.140974 0.000166496 -5.39886e-05)
(0.151007 0.000217902 -5.5777e-05)
(0.160735 0.000273291 -5.44284e-05)
(0.170162 0.000331229 -5.05221e-05)
(0.179295 0.000390436 -4.47336e-05)
(0.188144 0.000449834 -3.7714e-05)
(0.196719 0.000508575 -3.00208e-05)
(0.205032 0.000566037 -2.20886e-05)
(0.213094 0.0006218 -1.42294e-05)
(0.220915 0.000675612 -6.64576e-06)
(0.228505 0.000727355 5.46937e-07)
(0.235873 0.000777 7.29904e-06)
(0.243024 0.000824575 1.36067e-05)
(0.249963 0.000870125 1.94958e-05)
(0.256696 0.000913684 2.50096e-05)
(0.263224 0.000955252 3.02e-05)
(0.269548 0.000994762 3.51219e-05)
(0.275669 0.00103207 3.98287e-05)
(0.281586 0.00106693 4.43704e-05)
(0.287298 0.00109897 4.8792e-05)
(0.292802 0.00112768 5.31326e-05)
(0.298094 0.00115242 5.74246e-05)
(0.303171 0.00117237 6.16931e-05)
(0.308028 0.00118654 6.59548e-05)
(0.312658 0.00119379 7.02148e-05)
(0.317057 0.00119281 7.44628e-05)
(0.321216 0.00118219 7.86842e-05)
(0.32513 0.00116041 8.28578e-05)
(0.328788 0.0011259 8.69409e-05)
(0.332184 0.00107712 9.08739e-05)
(0.335305 0.00101274 9.45836e-05)
(0.338142 0.000931634 9.7987e-05)
(0.340677 0.000833189 0.000100998)
(0.342894 0.000717183 0.000103542)
(0.344766 0.00058412 0.000105562)
(0.34626 0.000434757 0.000107047)
(0.347327 0.000270478 0.000108003)
(0.347903 9.24403e-05 0.00010832)
(0.00806021 -7.2722e-07 -3.18355e-06)
(0.0211348 2.15515e-06 -4.35041e-06)
(0.034882 3.86156e-06 -2.4113e-06)
(0.0490421 4.6436e-06 1.2378e-06)
(0.0633361 4.52043e-06 4.29171e-06)
(0.0775683 3.85428e-06 3.85428e-06)
(0.0916194 5.38981e-06 -2.46637e-06)
(0.105417 1.34127e-05 -1.48839e-05)
(0.118915 3.10668e-05 -3.11965e-05)
(0.132083 5.92737e-05 -4.83523e-05)
(0.144904 9.74509e-05 -6.37257e-05)
(0.157368 0.000144313 -7.55712e-05)
(0.169471 0.0001983 -8.30564e-05)
(0.181215 0.000257791 -8.6118e-05)
(0.192603 0.000321232 -8.5228e-05)
(0.203644 0.000387202 -8.11587e-05)
(0.214348 0.000454456 -7.47831e-05)
(0.224726 0.000521948 -6.69381e-05)
(0.234789 0.000588838 -5.83423e-05)
(0.244551 0.000654488 -4.9561e-05)
(0.254022 0.000718442 -4.10034e-05)
(0.263213 0.000780404 -3.29376e-05)
(0.272132 0.000840203 -2.55152e-05)
(0.280789 0.000897762 -1.87988e-05)
(0.289188 0.000953061 -1.2786e-05)
(0.297335 0.0010061 -7.43071e-06)
(0.305233 0.00105689 -2.65978e-06)
(0.312884 0.00110537 1.61462e-06)
(0.32029 0.00115145 5.48628e-06)
(0.32745 0.00119495 9.04887e-06)
(0.334362 0.00123556 1.23919e-05)
(0.341025 0.00127285 1.55983e-05)
(0.347435 0.00130625 1.87421e-05)
(0.353589 0.00133499 2.18877e-05)
(0.359481 0.00135815 2.50879e-05)
(0.365108 0.0013746 2.83824e-05)
(0.370463 0.00138301 3.17934e-05)
(0.375539 0.00138191 3.53198e-05)
(0.38033 0.00136964 3.89521e-05)
(0.384828 0.00134447 4.26673e-05)
(0.389025 0.00130458 4.64119e-05)
(0.392913 0.00124819 5.01063e-05)
(0.39648 0.00117374 5.36498e-05)
(0.399714 0.00107993 5.69262e-05)
(0.402602 0.000966025 5.98168e-05)
(0.405122 0.000831732 6.22175e-05)
(0.407249 0.000677591 6.40595e-05)
(0.408943 0.000504459 6.53404e-05)
(0.410153 0.000313899 6.6098e-05)
(0.410805 0.000107278 6.63772e-05)
(0.00956676 -1.21932e-06 -5.0806e-06)
(0.0249942 2.01945e-06 -7.13326e-06)
(0.0413192 3.1117e-06 -4.28715e-06)
(0.0581391 2.79121e-06 1.52849e-06)
(0.0750069 1.21014e-06 6.52521e-06)
(0.0916194 -2.46637e-06 5.38981e-06)
(0.107827 -5.79434e-06 -5.79434e-06)
(0.123574 -2.65987e-06 -2.64518e-05)
(0.138851 1.2038e-05 -5.21956e-05)
(0.153663 3.98134e-05 -7.81355e-05)
(0.168026 7.97484e-05 -0.000100788)
(0.181954 0.000129986 -0.000118248)
(0.195465 0.000188468 -0.000129834)
(0.208574 0.000253233 -0.000135727)
(0.221295 0.000322536 -0.000136644)
(0.233644 0.000394862 -0.000133579)
(0.245634 0.000468923 -0.000127598)
(0.257277 0.000543639 -0.000119705)
(0.268586 0.000618128 -0.00011076)
(0.279571 0.000691694 -0.000101444)
(0.290243 0.00076381 -9.22584e-05)
(0.30061 0.000834094 -8.35407e-05)
(0.310679 0.00090229 -7.54906e-05)
(0.320457 0.000968234 -6.81997e-05)
(0.329948 0.00103183 -6.16783e-05)
(0.339155 0.001093 -5.58801e-05)
(0.348081 0.00115168 -5.07215e-05)
(0.356725 0.00120779 -4.60971e-05)
(0.365087 0.00126115 -4.18905e-05)
(0.373165 0.00131154 -3.79831e-05)
(0.380959 0.0013586 -3.42592e-05)
(0.388463 0.00140185 -3.06109e-05)
(0.395674 0.00144062 -2.69408e-05)
(0.402587 0.0014741 -2.31644e-05)
(0.409198 0.00150124 -1.9213e-05)
(0.4155 0.00152081 -1.50362e-05)
(0.421488 0.00153136 -1.06076e-05)
(0.427154 0.00153122 -5.93178e-06)
(0.432492 0.0015186 -1.02981e-06)
(0.437494 0.00149155 4.05654e-06)
(0.442152 0.00144806 9.24527e-06)
(0.446459 0.00138616 1.44164e-05)
(0.450404 0.00130411 1.94207e-05)
(0.453975 0.00120044 2.40854e-05)
(0.457157 0.0010743 2.82346e-05)
(0.459931 0.000925366 3.17106e-05)
(0.462268 0.000754179 3.44064e-05)
(0.464128 0.000561685 3.63027e-05)
(0.465455 0.000349605 3.74415e-05)
(0.466172 0.000119488 3.80408e-05)
(0.0110994 -1.96212e-06 -6.87924e-06)
(0.0288653 1.09223e-06 -9.34926e-06)
(0.0477517 4.83794e-07 -4.74981e-06)
(0.0671969 -2.20954e-06 4.64376e-06)
(0.0865622 -6.43736e-06 1.35768e-05)
(0.105417 -1.48839e-05 1.34127e-05)
(0.123574 -2.64518e-05 -2.65987e-06)
(0.141007 -3.35539e-05 -3.35539e-05)
(0.157757 -2.85976e-05 -7.17873e-05)
(0.173884 -8.50744e-06 -0.000109475)
(0.189449 2.63619e-05 -0.000141553)
(0.204503 7.414e-05 -0.000165767)
(0.21909 0.000132466 -0.000181724)
(0.233245 0.000198993 -0.000190088)
(0.246996 0.000271624 -0.000192039)
(0.260366 0.000348565 -0.000188953)
(0.273375 0.000428319 -0.000182188)
(0.286037 0.00050964 -0.000172966)
(0.298363 0.000591506 -0.000162313)
(0.310364 0.000673089 -0.000151036)
(0.322047 0.000753733 -0.000139732)
(0.333418 0.000832928 -0.000128809)
(0.344481 0.00091029 -0.000118519)
(0.355238 0.000985536 -0.00010899)
(0.365692 0.00105845 -0.000100258)
(0.375842 0.00112887 -9.22871e-05)
(0.385687 0.00119663 -8.49995e-05)
(0.395225 0.00126156 -7.82859e-05)
(0.404453 0.00132342 -7.20212e-05)
(0.413367 0.00138192 -6.60733e-05)
(0.421963 0.00143664 -6.03107e-05)
(0.430235 0.00148702 -5.4608e-05)
(0.438178 0.00153236 -4.88504e-05)
(0.445786 0.00157174 -4.29376e-05)
(0.453053 0.00160406 -3.67876e-05)
(0.459972 0.00162797 -3.03414e-05)
(0.466536 0.00164192 -2.35693e-05)
(0.472738 0.00164412 -1.6481e-05)
(0.478571 0.00163263 -9.11191e-06)
(0.484029 0.00160534 -1.5242e-06)
(0.489102 0.00156009 6.16858e-06)
(0.493784 0.00149476 1.38022e-05)
(0.498065 0.00140744 2.11728e-05)
(0.501934 0.00129653 2.80448e-05)
(0.505377 0.0011611 3.41774e-05)
(0.508372 0.00100076 3.93516e-05)
(0.510893 0.000816082 4.34155e-05)
(0.512898 0.00060808 4.63265e-05)
(0.514327 0.000378619 4.81261e-05)
(0.515097 0.000129421 4.9128e-05)
(0.0126464 -2.96638e-06 -7.93325e-06)
(0.032726 -5.97941e-07 -9.65707e-06)
(0.0541429 -3.83572e-06 -1.9629e-06)
(0.0761632 -9.78785e-06 1.27034e-05)
(0.0979431 -1.72794e-05 2.77719e-05)
(0.118915 -3.11965e-05 3.10668e-05)
(0.138851 -5.21956e-05 1.2038e-05)
(0.157757 -7.17873e-05 -2.85976e-05)
(0.175738 -8.04641e-05 -8.04641e-05)
(0.19292 -7.34789e-05 -0.000132109)
(0.209418 -4.98589e-05 -0.00017603)
(0.225325 -1.06298e-05 -0.000208977)
(0.240717 4.21374e-05 -0.000230573)
(0.255653 0.000105976 -0.000241965)
(0.270176 0.00017846 -0.00024494)
(0.284322 0.000257412 -0.000241423)
(0.298116 0.000340975 -0.000233213)
(0.311575 0.000427595 -0.000221864)
(0.324715 0.000515992 -0.000208649)
(0.337542 0.000605118 -0.000194549)
(0.350064 0.000694123 -0.000180286)
(0.362283 0.000782325 -0.000166354)
(0.374199 0.00086918 -0.000153063)
(0.385811 0.000954255 -0.000140576)
(0.397116 0.0010372 -0.000128949)
(0.40811 0.00111771 -0.000118159)
(0.418788 0.00119552 -0.000108128)
(0.429143 0.00127034 -9.87433e-05)
(0.43917 0.00134184 -8.98708e-05)
(0.44886 0.00140965 -8.13662e-05)
(0.458205 0.00147326 -7.30832e-05)
(0.467199 0.00153205 -6.48794e-05)
(0.475832 0.00158522 -5.66224e-05)
(0.484097 0.00163181 -4.81948e-05)
(0.491984 0.0016706 -3.94993e-05)
(0.499487 0.0017002 -3.0465e-05)
(0.506598 0.00171893 -2.1056e-05)
(0.513307 0.00172491 -1.12828e-05)
(0.519609 0.00171606 -1.19339e-06)
(0.525495 0.00169016 9.13189e-06)
(0.530959 0.00164493 1.95494e-05)
(0.535993 0.00157809 2.98503e-05)
(0.540587 0.00148762 3.97751e-05)
(0.544733 0.00137182 4.90218e-05)
(0.548416 0.00122966 5.7282e-05)
(0.551617 0.00106072 6.42716e-05)
(0.554306 0.000865584 6.97927e-05)
(0.556442 0.000645345 7.37802e-05)
(0.557964 0.000401995 7.62798e-05)
(0.558784 0.000137434 7.76391e-05)
(0.0141959 -4.20374e-06 -7.62817e-06)
(0.0365539 -2.81345e-06 -6.82132e-06)
(0.0604584 -9.18581e-06 5.67014e-06)
(0.0849937 -1.8617e-05 2.73171e-05)
(0.109104 -2.92327e-05 5.03405e-05)
(0.132083 -4.83523e-05 5.92737e-05)
(0.153663 -7.81355e-05 3.98134e-05)
(0.173884 -0.000109475 -8.50745e-06)
(0.19292 -0.000132109 -7.34789e-05)
(0.210969 -0.000140435 -0.000140435)
(0.228203 -0.000132035 -0.000198941)
(0.244763 -0.000106394 -0.000243922)
(0.260759 -6.451e-05 -0.000274304)
(0.276272 -8.38439e-06 -0.000291323)
(0.291367 5.95545e-05 -0.000297246)
(0.306089 0.000136861 -0.000294584)
(0.320474 0.000221292 -0.000285692)
(0.334545 0.000310895 -0.000272592)
(0.348318 0.000404026 -0.000256916)
(0.361804 0.000499322 -0.000239922)
(0.375007 0.000595666 -0.000222531)
(0.387929 0.000692149 -0.000205374)
(0.400567 0.000788032 -0.000188855)
(0.412916 0.000882705 -0.000173193)
(0.424968 0.000975663 -0.000158476)
(0.436716 0.00106646 -0.00014469)
(0.448148 0.00115469 -0.000131757)
(0.459254 0.00123995 -0.000119557)
(0.470023 0.00132181 -0.000107941)
(0.480441 0.00139975 -9.67489e-05)
(0.490498 0.00147319 -8.58159e-05)
(0.50018 0.00154141 -7.49815e-05)
(0.509477 0.00160353 -6.40945e-05)
(0.518376 0.00165848 -5.30196e-05)
(0.526867 0.00170499 -4.16436e-05)
(0.534939 0.00174153 -2.98835e-05)
(0.542582 0.00176637 -1.76955e-05)
(0.549787 0.00177752 -5.08978e-06)
(0.556546 0.00177277 7.87287e-06)
(0.562852 0.00174982 2.10931e-05)
(0.568696 0.00170625 3.43959e-05)
(0.574071 0.00163968 4.75258e-05)
(0.57897 0.00154797 6.0163e-05)
(0.583384 0.00142935 7.19342e-05)
(0.587298 0.0012827 8.24572e-05)
(0.590695 0.00110759 9.13775e-05)
(0.593545 0.000904602 9.84465e-05)
(0.595807 0.000674904 0.000103575)
(0.597416 0.000420619 0.000106816)
(0.598283 0.000143829 0.000108534)
(0.0157369 -5.62716e-06 -5.54148e-06)
(0.040328 -5.23765e-06 -2.82883e-08)
(0.0666679 -1.47547e-05 1.91175e-05)
(0.0936519 -2.72363e-05 4.92624e-05)
(0.120011 -4.02308e-05 8.14656e-05)
(0.144904 -6.37257e-05 9.74509e-05)
(0.168026 -0.000100788 7.97484e-05)
(0.189449 -0.000141553 2.63619e-05)
(0.209418 -0.00017603 -4.98589e-05)
(0.228203 -0.000198941 -0.000132035)
(0.246039 -0.000206969 -0.000206969)
(0.263115 -0.000197906 -0.000267222)
(0.279572 -0.000171117 -0.000310243)
(0.295519 -0.000127475 -0.000336684)
(0.311037 -6.88464e-05 -0.000348864)
(0.326187 2.41779e-06 -0.000349705)
(0.341011 8.38732e-05 -0.000342104)
(0.355542 0.000173215 -0.000328619)
(0.3698 0.000268396 -0.000311361)
(0.383799 0.000367663 -0.000291972)
(0.397545 0.000469554 -0.000271674)
(0.411038 0.000572864 -0.000251323)
(0.424275 0.000676604 -0.000231482)
(0.437247 0.000779958 -0.000212479)
(0.449946 0.000882239 -0.000194464)
(0.462356 0.000982849 -0.000177461)
(0.474465 0.00108124 -0.000161402)
(0.486256 0.00117687 -0.000146161)
(0.497711 0.00126919 -0.000131578)
(0.508814 0.00135759 -0.000117471)
(0.519546 0.00144134 -0.000103654)
(0.529891 0.00151963 -8.99464e-05)
(0.539831 0.00159146 -7.61751e-05)
(0.549351 0.00165568 -6.21867e-05)
(0.558436 0.00171089 -4.78525e-05)
(0.567071 0.00175549 -3.30779e-05)
(0.575244 0.00178763 -1.78131e-05)
(0.582944 0.0018052 -2.0683e-06)
(0.590161 0.00180592 1.40796e-05)
(0.596885 0.00178734 3.05092e-05)
(0.60311 0.00174695 4.70107e-05)
(0.608827 0.00168228 6.32775e-05)
(0.61403 0.00159108 7.8924e-05)
(0.61871 0.00147149 9.34985e-05)
(0.622854 0.00132235 0.000106537)
(0.626445 0.00114319 0.000117607)
(0.629454 0.000934607 0.000126404)
(0.631839 0.000697852 0.00013281)
(0.633535 0.000435169 0.000136884)
(0.634447 0.000148839 0.000139012)
(0.01726 -7.18932e-06 -1.51029e-06)
(0.0440309 -7.58896e-06 1.09913e-05)
(0.0727466 -1.98466e-05 3.86056e-05)
(0.10211 -3.44795e-05 7.84836e-05)
(0.13064 -4.8753e-05 0.000120553)
(0.157368 -7.55712e-05 0.000144313)
(0.181954 -0.000118248 0.000129986)
(0.204503 -0.000165767 7.414e-05)
(0.225325 -0.000208977 -1.06298e-05)
(0.244763 -0.000243922 -0.000106394)
(0.263115 -0.000267222 -0.000197906)
(0.280614 -0.00027538 -0.00027538)
(0.297438 -0.000266043 -0.000334284)
(0.31372 -0.000238522 -0.000373995)
(0.329559 -0.000193567 -0.000396286)
(0.345028 -0.000132909 -0.000404086)
(0.360181 -5.88059e-05 -0.000400631)
(0.375057 2.63128e-05 -0.000388971)
(0.389683 0.000120097 -0.000371729)
(0.404076 0.000220412 -0.000351025)
(0.418246 0.000325403 -0.000328479)
(0.432194 0.0004335 -0.000305268)
(0.445917 0.000543398 -0.000282199)
(0.459407 0.000654014 -0.000259777)
(0.472652 0.00076444 -0.000238275)
(0.485637 0.000873897 -0.000217792)
(0.498342 0.000981682 -0.000198304)
(0.510747 0.00108712 -0.000179699)
(0.52283 0.00118954 -0.000161813)
(0.534569 0.00128819 -0.000144451)
(0.545939 0.00138228 -0.000127406)
(0.556918 0.00147084 -0.00011047)
(0.567482 0.00155278 -9.34503e-05)
(0.577611 0.00162682 -7.61715e-05)
(0.587283 0.00169145 -5.84893e-05)
(0.596481 0.00174496 -4.02982e-05)
(0.605187 0.00178538 -2.15442e-05)
(0.613387 0.00181049 -2.23955e-06)
(0.621067 0.00181787 1.75187e-05)
(0.628218 0.00180497 3.7582e-05)
(0.63483 0.00176917 5.77009e-05)
(0.640897 0.0017079 7.75121e-05)
(0.646409 0.0016188 9.65572e-05)
(0.65136 0.00149995 0.000114298)
(0.655738 0.00135011 0.000130181)
(0.659526 0.00116881 0.000143688)
(0.662696 0.000956663 0.000154449)
(0.665205 0.000714978 0.000162314)
(0.666987 0.000446139 0.000167344)
(0.667945 0.000152633 0.000169953)
(0.0187577 -8.85343e-06 4.38334e-06)
(0.0476493 -9.68146e-06 2.60024e-05)
(0.0786762 -2.40156e-05 6.37037e-05)
(0.110347 -3.96569e-05 0.000114255)
(0.140974 -5.39885e-05 0.000166496)
(0.169471 -8.30564e-05 0.0001983)
(0.195465 -0.000129834 0.000188468)
(0.21909 -0.000181724 0.000132466)
(0.240717 -0.000230573 4.21374e-05)
(0.260759 -0.000274304 -6.451e-05)
(0.279572 -0.000310243 -0.000171117)
(0.297438 -0.000334284 -0.000266043)
(0.314569 -0.000342711 -0.000342711)
(0.331121 -0.000333242 -0.000398768)
(0.347211 -0.000305177 -0.000434845)
(0.362926 -0.000259153 -0.000453341)
(0.378328 -0.000196771 -0.000457454)
(0.393466 -0.000120194 -0.000450514)
(0.408371 -3.18156e-05 -0.000435588)
(0.423066 6.59872e-05 -0.000415283)
(0.437563 0.00017101 -0.000391688)
(0.451869 0.000281301 -0.000366387)
(0.465982 0.000395183 -0.000340517)
(0.479894 0.000511241 -0.000314841)
(0.493593 0.000628286 -0.000289822)
(0.507063 0.000745303 -0.000265693)
(0.520283 0.000861399 -0.000242517)
(0.53323 0.000975748 -0.00022023)
(0.545878 0.00108754 -0.000198689)
(0.558199 0.00119592 -0.000177698)
(0.570164 0.00129997 -0.000157037)
(0.581743 0.00139864 -0.000136477)
(0.592908 0.00149071 -0.0001158)
(0.60363 0.00157479 -9.48101e-05)
(0.613882 0.00164926 -7.33448e-05)
(0.623641 0.00171227 -5.12873e-05)
(0.632883 0.00176173 -2.85804e-05)
(0.64159 0.00179528 -5.24179e-06)
(0.649745 0.00181038 1.86108e-05)
(0.657334 0.00180434 4.27915e-05)
(0.664346 0.00177442 6.7006e-05)
(0.670772 0.00171793 9.08273e-05)
(0.676606 0.00163243 0.000113716)
(0.681837 0.0015159 0.000135039)
(0.686457 0.00136704 0.000154144)
(0.690448 0.00118537 0.000170415)
(0.693783 0.000971498 0.000183413)
(0.696419 0.000726825 0.000192946)
(0.698289 0.000453866 0.000199077)
(0.699295 0.000155326 0.000202245)
(0.0202248 -1.05965e-05 1.18777e-05)
(0.0511741 -1.14353e-05 4.44042e-05)
(0.0844443 -2.70828e-05 9.35161e-05)
(0.118351 -4.25487e-05 0.000155414)
(0.151007 -5.5777e-05 0.000217902)
(0.181215 -8.6118e-05 0.000257791)
(0.208574 -0.000135727 0.000253233)
(0.233245 -0.000190088 0.000198993)
(0.255653 -0.000241965 0.000105976)
(0.276272 -0.000291323 -8.38439e-06)
(0.295519 -0.000336684 -0.000127475)
(0.31372 -0.000373995 -0.000238522)
(0.331121 -0.000398768 -0.000333242)
(0.347903 -0.000407449 -0.000407449)
(0.3642 -0.000397889 -0.000460225)
(0.380111 -0.000369375 -0.000492918)
(0.395709 -0.000322443 -0.000508208)
(0.411048 -0.000258568 -0.000509351)
(0.426167 -0.000179813 -0.000499642)
(0.441094 -8.85224e-05 -0.00048209)
(0.455846 1.29186e-05 -0.000459244)
(0.470431 0.000122251 -0.000433145)
(0.484852 0.000237434 -0.000405333)
(0.499104 0.000356685 -0.000376913)
(0.513175 0.00047847 -0.000348615)
(0.527049 0.000601479 -0.000320871)
(0.540707 0.00072457 -0.000293885)
(0.554123 0.000846719 -0.000267688)
(0.567268 0.000966952 -0.000242192)
(0.580112 0.00108429 -0.000217226)
(0.592621 0.00119771 -0.000192572)
(0.60476 0.00130604 -0.000167989)
(0.616494 0.00140799 -0.000143242)
(0.627789 0.00150204 -0.000118111)
(0.638609 0.00158648 -9.24153e-05)
(0.648924 0.00165932 -6.60255e-05)
(0.658705 0.00171833 -3.88812e-05)
(0.667926 0.00176104 -1.10081e-05)
(0.676566 0.00178474 1.74545e-05)
(0.684607 0.00178659 4.62741e-05)
(0.692033 0.00176373 7.51041e-05)
(0.698835 0.00171332 0.000103445)
(0.705002 0.00163282 0.000130667)
(0.710527 0.0015201 0.000156032)
(0.7154 0.00137382 0.000178775)
(0.719603 0.00119343 0.000198177)
(0.72311 0.000979582 0.000213716)
(0.725879 0.000733742 0.000225154)
(0.727842 0.000458567 0.000232549)
(0.728896 0.000156993 0.000236361)
(0.0216577 -1.24074e-05 2.06131e-05)
(0.0546001 -1.28551e-05 6.53993e-05)
(0.0900448 -2.90786e-05 0.000126905)
(0.126116 -4.32903e-05 0.00020059)
(0.160735 -5.44284e-05 0.000273291)
(0.192603 -8.5228e-05 0.000321232)
(0.221295 -0.000136644 0.000322536)
(0.246996 -0.000192039 0.000271624)
(0.270176 -0.00024494 0.00017846)
(0.291367 -0.000297246 5.95545e-05)
(0.311037 -0.000348864 -6.88464e-05)
(0.329559 -0.000396286 -0.000193567)
(0.347211 -0.000434845 -0.000305177)
(0.3642 -0.000460225 -0.000397889)
(0.380676 -0.000469113 -0.000469113)
(0.396751 -0.000459469 -0.000518785)
(0.412508 -0.000430565 -0.000548611)
(0.428007 -0.000382843 -0.000561338)
(0.443295 -0.000317656 -0.000560158)
(0.458403 -0.000236964 -0.000548263)
(0.473354 -0.000143054 -0.000528564)
(0.488159 -3.83061e-05 -0.000503532)
(0.502824 7.49789e-05 -0.000475152)
(0.517346 0.000194679 -0.000444928)
(0.531718 0.000318901 -0.000413933)
(0.545926 0.000445989 -0.000382874)
(0.559949 0.000574493 -0.000352162)
(0.573763 0.000703126 -0.000321978)
(0.58734 0.000830706 -0.000292333)
(0.600646 0.00095609 -0.000263114)
(0.613645 0.00107811 -0.000234134)
(0.626297 0.0011955 -0.000205157)
(0.638562 0.00130687 -0.000175939)
(0.6504 0.00141062 -0.000146244)
(0.661769 0.00150492 -0.000115872)
(0.67263 0.00158769 -8.46829e-05)
(0.682947 0.00165656 -5.26104e-05)
(0.692687 0.00170892 -1.96893e-05)
(0.701822 0.00174192 1.39172e-05)
(0.710327 0.00175256 4.7924e-05)
(0.718184 0.0017378 8.19228e-05)
(0.725377 0.00169467 0.000115332)
(0.731896 0.00162048 0.000147418)
(0.73773 0.00151302 0.000177326)
(0.742869 0.00137082 0.000204167)
(0.747296 0.00119333 0.000227104)
(0.750986 0.000981184 0.000245522)
(0.753895 0.00073593 0.000259128)
(0.755954 0.000460367 0.000267971)
(0.75706 0.000157676 0.000272524)
(0.0230546 -1.42832e-05 3.02045e-05)
(0.0579257 -1.39972e-05 8.81449e-05)
(0.0954761 -3.01614e-05 0.000162683)
(0.133643 -4.22275e-05 0.000248399)
(0.170162 -5.05221e-05 0.000331229)
(0.203644 -8.11587e-05 0.000387202)
(0.233644 -0.000133579 0.000394862)
(0.260366 -0.000188953 0.000348565)
(0.284322 -0.000241423 0.000257412)
(0.306089 -0.000294584 0.000136861)
(0.326187 -0.000349705 2.41779e-06)
(0.345028 -0.000404086 -0.000132909)
(0.362926 -0.000453341 -0.000259153)
(0.380111 -0.000492918 -0.000369375)
(0.396751 -0.000518785 -0.000459469)
(0.412971 -0.000527834 -0.000527834)
(0.428864 -0.000518108 -0.000574876)
(0.444496 -0.000488856 -0.000602429)
(0.459921 -0.00044043 -0.000613189)
(0.475173 -0.000374068 -0.00061022)
(0.490281 -0.00029163 -0.000596575)
(0.50526 -0.00019534 -0.000575049)
(0.520118 -8.75637e-05 -0.000548031)
(0.534857 2.93617e-05 -0.000517448)
(0.549472 0.000153236 -0.00048477)
(0.563952 0.000282056 -0.000451045)
(0.578278 0.000414028 -0.000416965)
(0.592427 0.000547552 -0.000382923)
(0.606372 0.000681172 -0.000349086)
(0.620079 0.000813523 -0.000315448)
(0.63351 0.00094326 -0.000281882)
(0.646625 0.00106899 -0.000248189)
(0.659377 0.00118921 -0.000214131)
(0.671723 0.00130222 -0.000179467)
(0.683613 0.00140612 -0.000143987)
(0.695003 0.00149872 -0.000107537)
(0.705847 0.00157755 -7.00472e-05)
(0.716106 0.00163988 -3.15615e-05)
(0.725741 0.0016827 7.73339e-06)
(0.734723 0.00170285 4.74931e-05)
(0.743025 0.00169711 8.72399e-05)
(0.750628 0.00166235 0.000126298)
(0.757516 0.00159573 0.00016382)
(0.763676 0.00149488 0.000198816)
(0.769098 0.00135826 0.000230257)
(0.773764 0.00118523 0.000257173)
(0.777647 0.000976429 0.000278845)
(0.780705 0.000733476 0.000294914)
(0.782868 0.00045932 0.000305408)
(0.784028 0.000157396 0.000310808)
(0.024415 -1.62248e-05 4.02944e-05)
(0.0611517 -1.49401e-05 0.000111862)
(0.10074 -3.05433e-05 0.000199757)
(0.140936 -3.97882e-05 0.000297579)
(0.179295 -4.47336e-05 0.000390436)
(0.214348 -7.47831e-05 0.000454456)
(0.245634 -0.000127598 0.000468923)
(0.273375 -0.000182188 0.000428319)
(0.298116 -0.000233213 0.000340975)
(0.320474 -0.000285692 0.000221292)
(0.341011 -0.000342104 8.38732e-05)
(0.360181 -0.000400631 -5.88059e-05)
(0.378328 -0.000457454 -0.000196771)
(0.395709 -0.000508208 -0.000322443)
(0.412508 -0.000548611 -0.000430565)
(0.428864 -0.000574876 -0.000518108)
(0.444878 -0.000584052 -0.000584052)
(0.460626 -0.000574243 -0.00062903)
(0.476165 -0.000544671 -0.000654877)
(0.491537 -0.000495603 -0.000664168)