/*--------------------------------*- C++ -*----------------------------------*\
| =========                 |                                                 |
| \\      /  F ield         | OpenFOAM: The Open Source CFD Toolbox           |
|  \\    /   O peration     | Version:  v1912                                 |
|   \\  /    A nd           | Website:  www.openfoam.com                      |
|    \\/     M anipulation  |                                                 |
\*---------------------------------------------------------------------------*/
FoamFile
{
    version     2.0;
    format      ascii;
    class       volVectorField;
    location    "0";
    object      C;
}
// * * * * * * * * * * * * * * * * * * * * * * * * * * * * * * * * * * * * * //

dimensions      [0 1 0 0 0 0 0];


internalField   nonuniform List<vector> 
3000
(
(0.0480314 1.00857 0.05)
(0.144029 1.00618 0.05)
(0.239073 0.994338 0.05)
(0.330444 0.966572 0.05)
(0.415595 0.922933 0.05)
(0.494927 0.869032 0.05)
(0.570489 0.809861 0.05)
(0.6441 0.748271 0.05)
(0.717292 0.686201 0.05)
(0.791096 0.624869 0.05)
(0.865745 0.564559 0.05)
(0.941068 0.505084 0.05)
(1.01687 0.446214 0.05)
(1.09299 0.387741 0.05)
(1.16953 0.329834 0.05)
(1.24702 0.273212 0.05)
(1.32614 0.218898 0.05)
(1.40759 0.1682 0.05)
(1.49201 0.122661 0.05)
(1.57962 0.0836521 0.05)
(1.67024 0.052298 0.05)
(1.76341 0.0296916 0.05)
(1.85839 0.0167963 0.05)
(1.95425 0.0127291 0.05)
(2.05032 0.0125755 0.05)
(2.14638 0.0125755 0.05)
(2.24245 0.0125755 0.05)
(2.33851 0.0125755 0.05)
(2.43458 0.0125755 0.05)
(2.53065 0.0125755 0.05)
(2.62671 0.0125755 0.05)
(2.72278 0.0125755 0.05)
(2.81884 0.0125755 0.05)
(2.91491 0.0125755 0.05)
(3.01098 0.0125755 0.05)
(3.10704 0.0125755 0.05)
(3.20311 0.0125755 0.05)
(3.29918 0.0125755 0.05)
(3.39524 0.0125755 0.05)
(3.49131 0.0125755 0.05)
(3.58737 0.0125755 0.05)
(3.68344 0.0125755 0.05)
(3.77951 0.0125755 0.05)
(3.87557 0.0125755 0.05)
(3.97164 0.0125755 0.05)
(4.0677 0.0125755 0.05)
(4.16377 0.0125755 0.05)
(4.25984 0.0125755 0.05)
(4.3559 0.0125755 0.05)
(4.45197 0.0125755 0.05)
(4.54804 0.0125755 0.05)
(4.6441 0.0125755 0.05)
(4.74017 0.0125755 0.05)
(4.83623 0.0125755 0.05)
(4.9323 0.0125755 0.05)
(5.02837 0.0125755 0.05)
(5.12443 0.0125755 0.05)
(5.2205 0.0125755 0.05)
(5.31657 0.0125755 0.05)
(5.41263 0.0125755 0.05)
(5.50869 0.0125755 0.05)
(5.60476 0.0125755 0.05)
(5.70083 0.0125755 0.05)
(5.79689 0.0125755 0.05)
(5.89296 0.0125755 0.05)
(5.98903 0.0125755 0.05)
(6.08509 0.0125755 0.05)
(6.18116 0.0125755 0.05)
(6.27723 0.0125755 0.05)
(6.37329 0.0125755 0.05)
(6.46936 0.0125755 0.05)
(6.56542 0.0125755 0.05)
(6.66149 0.0125755 0.05)
(6.75756 0.0125755 0.05)
(6.85362 0.0125755 0.05)
(6.94969 0.0125755 0.05)
(7.04575 0.0127293 0.05)
(7.14161 0.0167956 0.05)
(7.2366 0.0296907 0.05)
(7.32976 0.0522989 0.05)
(7.42038 0.0836552 0.05)
(7.50799 0.122662 0.05)
(7.59241 0.168201 0.05)
(7.67387 0.218901 0.05)
(7.75298 0.273212 0.05)
(7.83048 0.329832 0.05)
(7.90702 0.38774 0.05)
(7.98313 0.446213 0.05)
(8.05893 0.505086 0.05)
(8.13425 0.564563 0.05)
(8.20891 0.624867 0.05)
(8.28271 0.6862 0.05)
(8.3559 0.74827 0.05)
(8.42951 0.809862 0.05)
(8.50507 0.869035 0.05)
(8.58441 0.922932 0.05)
(8.66956 0.966571 0.05)
(8.76093 0.994338 0.05)
(8.85597 1.00618 0.05)
(8.95197 1.00857 0.05)
(0.0480039 1.02694 0.05)
(0.143947 1.02458 0.05)
(0.238946 1.01284 0.05)
(0.330305 0.985326 0.05)
(0.4155 0.942083 0.05)
(0.494929 0.888672 0.05)
(0.570622 0.830037 0.05)
(0.644382 0.769006 0.05)
(0.717726 0.707499 0.05)
(0.791677 0.646723 0.05)
(0.866465 0.586959 0.05)
(0.941921 0.528023 0.05)
(1.01785 0.469687 0.05)
(1.09409 0.411743 0.05)
(1.17076 0.354361 0.05)
(1.24836 0.298252 0.05)
(1.32758 0.24443 0.05)
(1.40911 0.194191 0.05)
(1.49358 0.149065 0.05)
(1.58121 0.110409 0.05)
(1.67183 0.0793393 0.05)
(1.76496 0.0569377 0.05)
(1.8599 0.0441591 0.05)
(1.95571 0.0401288 0.05)
(2.05172 0.0399766 0.05)
(2.14773 0.0399766 0.05)
(2.24374 0.0399766 0.05)
(2.33975 0.0399766 0.05)
(2.43576 0.0399766 0.05)
(2.53177 0.0399766 0.05)
(2.62778 0.0399766 0.05)
(2.7238 0.0399766 0.05)
(2.81981 0.0399766 0.05)
(2.91582 0.0399766 0.05)
(3.01183 0.0399766 0.05)
(3.10784 0.0399766 0.05)
(3.20385 0.0399766 0.05)
(3.29986 0.0399766 0.05)
(3.39587 0.0399766 0.05)
(3.49189 0.0399766 0.05)
(3.58789 0.0399766 0.05)
(3.68391 0.0399766 0.05)
(3.77992 0.0399766 0.05)
(3.87593 0.0399766 0.05)
(3.97194 0.0399766 0.05)
(4.06795 0.0399766 0.05)
(4.16396 0.0399766 0.05)
(4.25997 0.0399766 0.05)
(4.35599 0.0399766 0.05)
(4.452 0.0399766 0.05)
(4.54801 0.0399766 0.05)
(4.64402 0.0399766 0.05)
(4.74003 0.0399766 0.05)
(4.83604 0.0399766 0.05)
(4.93205 0.0399766 0.05)
(5.02806 0.0399766 0.05)
(5.12407 0.0399766 0.05)
(5.22009 0.0399766 0.05)
(5.3161 0.0399766 0.05)
(5.41211 0.0399766 0.05)
(5.50812 0.0399766 0.05)
(5.60413 0.0399766 0.05)
(5.70014 0.0399766 0.05)
(5.79615 0.0399766 0.05)
(5.89216 0.0399766 0.05)
(5.98817 0.0399766 0.05)
(6.08419 0.0399766 0.05)
(6.1802 0.0399766 0.05)
(6.27621 0.0399766 0.05)
(6.37222 0.0399766 0.05)
(6.46823 0.0399766 0.05)
(6.56424 0.0399766 0.05)
(6.66025 0.0399766 0.05)
(6.75626 0.0399766 0.05)
(6.85227 0.0399766 0.05)
(6.94829 0.0399766 0.05)
(7.04429 0.040129 0.05)
(7.1401 0.0441585 0.05)
(7.23504 0.0569368 0.05)
(7.32818 0.0793401 0.05)
(7.41879 0.110412 0.05)
(7.50642 0.149066 0.05)
(7.59089 0.194192 0.05)
(7.67242 0.244433 0.05)
(7.75164 0.298252 0.05)
(7.82925 0.354359 0.05)
(7.90591 0.411742 0.05)
(7.98215 0.469685 0.05)
(8.05808 0.528025 0.05)
(8.13353 0.586963 0.05)
(8.20833 0.64672 0.05)
(8.28228 0.707497 0.05)
(8.35562 0.769005 0.05)
(8.42938 0.830038 0.05)
(8.50507 0.888675 0.05)
(8.5845 0.942082 0.05)
(8.6697 0.985325 0.05)
(8.76106 1.01284 0.05)
(8.85606 1.02458 0.05)
(8.952 1.02694 0.05)
(0.0479715 1.0486 0.05)
(0.143851 1.04626 0.05)
(0.238796 1.03465 0.05)
(0.330142 1.00743 0.05)
(0.415389 0.964658 0.05)
(0.494932 0.911823 0.05)
(0.57078 0.853821 0.05)
(0.644714 0.793447 0.05)
(0.718238 0.732603 0.05)
(0.792362 0.672482 0.05)
(0.867314 0.613363 0.05)
(0.942927 0.555063 0.05)
(1.01901 0.497355 0.05)
(1.0954 0.440036 0.05)
(1.17221 0.383273 0.05)
(1.24995 0.327768 0.05)
(1.32928 0.274527 0.05)
(1.4109 0.224829 0.05)
(1.49543 0.180189 0.05)
(1.58309 0.14195 0.05)
(1.67369 0.111215 0.05)
(1.7668 0.0890544 0.05)
(1.86168 0.0764135 0.05)
(1.95743 0.0724267 0.05)
(2.05337 0.0722761 0.05)
(2.14932 0.0722761 0.05)
(2.24526 0.0722761 0.05)
(2.34121 0.0722761 0.05)
(2.43716 0.0722761 0.05)
(2.5331 0.0722761 0.05)
(2.62905 0.0722761 0.05)
(2.72499 0.0722761 0.05)
(2.82094 0.0722761 0.05)
(2.91689 0.0722761 0.05)
(3.01283 0.0722761 0.05)
(3.10878 0.0722761 0.05)
(3.20473 0.0722761 0.05)
(3.30067 0.0722761 0.05)
(3.39662 0.0722761 0.05)
(3.49257 0.0722761 0.05)
(3.58851 0.0722761 0.05)
(3.68446 0.0722761 0.05)
(3.7804 0.0722761 0.05)
(3.87635 0.0722761 0.05)
(3.9723 0.0722761 0.05)
(4.06824 0.0722761 0.05)
(4.16419 0.0722761 0.05)
(4.26014 0.0722761 0.05)
(4.35608 0.0722761 0.05)
(4.45203 0.0722761 0.05)
(4.54798 0.0722761 0.05)
(4.64392 0.0722761 0.05)
(4.73987 0.0722761 0.05)
(4.83582 0.0722761 0.05)
(4.93176 0.0722761 0.05)
(5.02771 0.0722761 0.05)
(5.12365 0.0722761 0.05)
(5.2196 0.0722761 0.05)
(5.31555 0.0722761 0.05)
(5.41149 0.0722761 0.05)
(5.50744 0.0722761 0.05)
(5.60338 0.0722761 0.05)
(5.69933 0.0722761 0.05)
(5.79528 0.0722761 0.05)
(5.89122 0.0722761 0.05)
(5.98717 0.0722761 0.05)
(6.08312 0.0722761 0.05)
(6.17906 0.0722761 0.05)
(6.27501 0.0722761 0.05)
(6.37096 0.0722761 0.05)
(6.4669 0.0722761 0.05)
(6.56285 0.0722761 0.05)
(6.65879 0.0722761 0.05)
(6.75474 0.0722761 0.05)
(6.85069 0.0722761 0.05)
(6.94663 0.0722761 0.05)
(7.04258 0.0724269 0.05)
(7.13832 0.0764129 0.05)
(7.23321 0.0890535 0.05)
(7.32631 0.111215 0.05)
(7.41691 0.141953 0.05)
(7.50457 0.18019 0.05)
(7.5891 0.22483 0.05)
(7.67073 0.274529 0.05)
(7.75006 0.327768 0.05)
(7.8278 0.383271 0.05)
(7.90461 0.440035 0.05)
(7.98099 0.497354 0.05)
(8.05708 0.555064 0.05)
(8.13269 0.613367 0.05)
(8.20764 0.67248 0.05)
(8.28177 0.732602 0.05)
(8.35529 0.793447 0.05)
(8.42922 0.853822 0.05)
(8.50507 0.911826 0.05)
(8.58462 0.964657 0.05)
(8.66986 1.00743 0.05)
(8.76121 1.03465 0.05)
(8.85615 1.04626 0.05)
(8.95203 1.0486 0.05)
(0.0479333 1.07413 0.05)
(0.143738 1.07182 0.05)
(0.23862 1.06036 0.05)
(0.329949 1.03349 0.05)
(0.415258 0.991268 0.05)
(0.494936 0.939113 0.05)
(0.570965 0.881856 0.05)
(0.645106 0.822259 0.05)
(0.718841 0.762196 0.05)
(0.793169 0.702848 0.05)
(0.868315 0.644487 0.05)
(0.944112 0.586936 0.05)
(1.02037 0.52997 0.05)
(1.09694 0.473387 0.05)
(1.17392 0.417353 0.05)
(1.25181 0.362562 0.05)
(1.33128 0.310004 0.05)
(1.41301 0.260944 0.05)
(1.49761 0.216877 0.05)
(1.5853 0.179129 0.05)
(1.67589 0.148788 0.05)
(1.76896 0.126912 0.05)
(1.86378 0.114434 0.05)
(1.95945 0.110498 0.05)
(2.05532 0.11035 0.05)
(2.15119 0.11035 0.05)
(2.24706 0.11035 0.05)
(2.34293 0.11035 0.05)
(2.4388 0.11035 0.05)
(2.53467 0.11035 0.05)
(2.63054 0.11035 0.05)
(2.72641 0.11035 0.05)
(2.82228 0.11035 0.05)
(2.91815 0.11035 0.05)
(3.01402 0.11035 0.05)
(3.10989 0.11035 0.05)
(3.20576 0.11035 0.05)
(3.30163 0.11035 0.05)
(3.3975 0.11035 0.05)
(3.49337 0.11035 0.05)
(3.58924 0.11035 0.05)
(3.68511 0.11035 0.05)
(3.78098 0.11035 0.05)
(3.87685 0.11035 0.05)
(3.97272 0.11035 0.05)
(4.06859 0.11035 0.05)
(4.16446 0.11035 0.05)
(4.26033 0.11035 0.05)
(4.3562 0.11035 0.05)
(4.45207 0.11035 0.05)
(4.54794 0.11035 0.05)
(4.64381 0.11035 0.05)
(4.73968 0.11035 0.05)
(4.83555 0.11035 0.05)
(4.93142 0.11035 0.05)
(5.02729 0.11035 0.05)
(5.12316 0.11035 0.05)
(5.21903 0.11035 0.05)
(5.3149 0.11035 0.05)
(5.41077 0.11035 0.05)
(5.50663 0.11035 0.05)
(5.60251 0.11035 0.05)
(5.69838 0.11035 0.05)
(5.79425 0.11035 0.05)
(5.89012 0.11035 0.05)
(5.98599 0.11035 0.05)
(6.08186 0.11035 0.05)
(6.17773 0.11035 0.05)
(6.2736 0.11035 0.05)
(6.36947 0.11035 0.05)
(6.46534 0.11035 0.05)
(6.5612 0.11035 0.05)
(6.65708 0.11035 0.05)
(6.75295 0.11035 0.05)
(6.84882 0.11035 0.05)
(6.94469 0.11035 0.05)
(7.04055 0.110498 0.05)
(7.13622 0.114433 0.05)
(7.23105 0.126912 0.05)
(7.32411 0.148789 0.05)
(7.4147 0.179132 0.05)
(7.50239 0.216878 0.05)
(7.58699 0.260945 0.05)
(7.66872 0.310006 0.05)
(7.74819 0.362561 0.05)
(7.82609 0.417351 0.05)
(7.90307 0.473386 0.05)
(7.97963 0.529968 0.05)
(8.05589 0.586938 0.05)
(8.13169 0.644491 0.05)
(8.20684 0.702845 0.05)
(8.28116 0.762195 0.05)
(8.3549 0.822258 0.05)
(8.42904 0.881857 0.05)
(8.50506 0.939116 0.05)
(8.58475 0.991267 0.05)
(8.67006 1.03349 0.05)
(8.76138 1.06036 0.05)
(8.85627 1.07182 0.05)
(8.95207 1.07413 0.05)
(0.0478883 1.10423 0.05)
(0.143604 1.10195 0.05)
(0.238412 1.09067 0.05)
(0.329722 1.06421 0.05)
(0.415103 1.02264 0.05)
(0.49494 0.971281 0.05)
(0.571183 0.914904 0.05)
(0.645568 0.856221 0.05)
(0.719552 0.79708 0.05)
(0.794121 0.738642 0.05)
(0.869494 0.681177 0.05)
(0.945509 0.624508 0.05)
(1.02198 0.568415 0.05)
(1.09875 0.512701 0.05)
(1.17593 0.457527 0.05)
(1.25401 0.403575 0.05)
(1.33364 0.351823 0.05)
(1.4155 0.303516 0.05)
(1.50018 0.260124 0.05)
(1.5879 0.222954 0.05)
(1.67849 0.193079 0.05)
(1.77151 0.171538 0.05)
(1.86625 0.159251 0.05)
(1.96184 0.155376 0.05)
(2.05762 0.155229 0.05)
(2.15339 0.155229 0.05)
(2.24917 0.155229 0.05)
(2.34495 0.155229 0.05)
(2.44073 0.155229 0.05)
(2.53651 0.155229 0.05)
(2.63229 0.155229 0.05)
(2.72807 0.155229 0.05)
(2.82385 0.155229 0.05)
(2.91963 0.155229 0.05)
(3.01541 0.155229 0.05)
(3.11119 0.155229 0.05)
(3.20697 0.155229 0.05)
(3.30275 0.155229 0.05)
(3.39853 0.155229 0.05)
(3.49431 0.155229 0.05)
(3.59009 0.155229 0.05)
(3.68587 0.155229 0.05)
(3.78165 0.155229 0.05)
(3.87743 0.155229 0.05)
(3.97321 0.155229 0.05)
(4.06899 0.155229 0.05)
(4.16477 0.155229 0.05)
(4.26055 0.155229 0.05)
(4.35633 0.155229 0.05)
(4.45211 0.155229 0.05)
(4.54789 0.155229 0.05)
(4.64367 0.155229 0.05)
(4.73945 0.155229 0.05)
(4.83523 0.155229 0.05)
(4.93101 0.155229 0.05)
(5.02679 0.155229 0.05)
(5.12257 0.155229 0.05)
(5.21835 0.155229 0.05)
(5.31413 0.155229 0.05)
(5.40991 0.155229 0.05)
(5.50569 0.155229 0.05)
(5.60147 0.155229 0.05)
(5.69725 0.155229 0.05)
(5.79303 0.155229 0.05)
(5.88881 0.155229 0.05)
(5.98459 0.155229 0.05)
(6.08037 0.155229 0.05)
(6.17615 0.155229 0.05)
(6.27193 0.155229 0.05)
(6.36771 0.155229 0.05)
(6.46349 0.155229 0.05)
(6.55927 0.155229 0.05)
(6.65505 0.155229 0.05)
(6.75083 0.155229 0.05)
(6.84661 0.155229 0.05)
(6.94239 0.155229 0.05)
(7.03817 0.155376 0.05)
(7.13375 0.15925 0.05)
(7.2285 0.171537 0.05)
(7.32151 0.193079 0.05)
(7.4121 0.222957 0.05)
(7.49982 0.260125 0.05)
(7.5845 0.303516 0.05)
(7.66636 0.351825 0.05)
(7.74599 0.403575 0.05)
(7.82408 0.457524 0.05)
(7.90125 0.5127 0.05)
(7.97802 0.568414 0.05)
(8.05449 0.62451 0.05)
(8.13051 0.68118 0.05)
(8.20589 0.738639 0.05)
(8.28045 0.797079 0.05)
(8.35444 0.856221 0.05)
(8.42882 0.914905 0.05)
(8.50506 0.971284 0.05)
(8.5849 1.02263 0.05)
(8.67028 1.06421 0.05)
(8.76159 1.09067 0.05)
(8.8564 1.10195 0.05)
(8.95212 1.10423 0.05)
(0.0478352 1.1397 0.05)
(0.143446 1.13746 0.05)
(0.238167 1.12639 0.05)
(0.329454 1.10042 0.05)
(0.414921 1.05961 0.05)
(0.494945 1.0092 0.05)
(0.571441 0.95386 0.05)
(0.646112 0.896256 0.05)
(0.720391 0.838201 0.05)
(0.795243 0.780835 0.05)
(0.870884 0.724425 0.05)
(0.947156 0.668797 0.05)
(1.02388 0.613734 0.05)
(1.10089 0.559043 0.05)
(1.1783 0.504882 0.05)
(1.2566 0.451921 0.05)
(1.33642 0.401119 0.05)
(1.41843 0.353698 0.05)
(1.50321 0.311102 0.05)
(1.59097 0.274614 0.05)
(1.68155 0.245287 0.05)
(1.77451 0.224141 0.05)
(1.86917 0.21208 0.05)
(1.96465 0.208275 0.05)
(2.06032 0.208132 0.05)
(2.156 0.208132 0.05)
(2.25167 0.208132 0.05)
(2.34734 0.208132 0.05)
(2.44302 0.208132 0.05)
(2.53869 0.208132 0.05)
(2.63436 0.208132 0.05)
(2.73004 0.208132 0.05)
(2.82571 0.208132 0.05)
(2.92139 0.208132 0.05)
(3.01706 0.208132 0.05)
(3.11273 0.208132 0.05)
(3.20841 0.208132 0.05)
(3.30408 0.208132 0.05)
(3.39975 0.208132 0.05)
(3.49543 0.208132 0.05)
(3.5911 0.208132 0.05)
(3.68677 0.208132 0.05)
(3.78245 0.208132 0.05)
(3.87812 0.208132 0.05)
(3.9738 0.208132 0.05)
(4.06947 0.208132 0.05)
(4.16514 0.208132 0.05)
(4.26082 0.208132 0.05)
(4.35649 0.208132 0.05)
(4.45216 0.208132 0.05)
(4.54784 0.208132 0.05)
(4.64351 0.208132 0.05)
(4.73919 0.208132 0.05)
(4.83486 0.208132 0.05)
(4.93053 0.208132 0.05)
(5.02621 0.208132 0.05)
(5.12188 0.208132 0.05)
(5.21756 0.208132 0.05)
(5.31323 0.208132 0.05)
(5.4089 0.208132 0.05)
(5.50457 0.208132 0.05)
(5.60025 0.208132 0.05)
(5.69592 0.208132 0.05)
(5.7916 0.208132 0.05)
(5.88727 0.208132 0.05)
(5.98294 0.208132 0.05)
(6.07862 0.208132 0.05)
(6.17429 0.208132 0.05)
(6.26997 0.208132 0.05)
(6.36564 0.208132 0.05)
(6.46131 0.208132 0.05)
(6.55699 0.208132 0.05)
(6.65266 0.208132 0.05)
(6.74833 0.208132 0.05)
(6.84401 0.208132 0.05)
(6.93968 0.208132 0.05)
(7.03535 0.208276 0.05)
(7.13083 0.212079 0.05)
(7.22549 0.22414 0.05)
(7.31845 0.245287 0.05)
(7.40903 0.274617 0.05)
(7.49679 0.311103 0.05)
(7.58157 0.353698 0.05)
(7.66358 0.401121 0.05)
(7.7434 0.451921 0.05)
(7.8217 0.50488 0.05)
(7.89911 0.559042 0.05)
(7.97613 0.613733 0.05)
(8.05285 0.668799 0.05)
(8.12912 0.724429 0.05)
(8.20476 0.780832 0.05)
(8.27961 0.838199 0.05)
(8.35389 0.896255 0.05)
(8.42856 0.953861 0.05)
(8.50506 1.0092 0.05)
(8.58508 1.05961 0.05)
(8.67055 1.10042 0.05)
(8.76184 1.12639 0.05)
(8.85656 1.13746 0.05)
(8.95217 1.1397 0.05)
(0.0477727 1.18151 0.05)
(0.14326 1.17933 0.05)
(0.237878 1.1685 0.05)
(0.329138 1.1431 0.05)
(0.414706 1.1032 0.05)
(0.49495 1.0539 0.05)
(0.571745 0.999781 0.05)
(0.646754 0.943448 0.05)
(0.721379 0.886673 0.05)
(0.796565 0.830572 0.05)
(0.872523 0.775406 0.05)
(0.949097 0.721004 0.05)
(1.02611 0.667156 0.05)
(1.10341 0.61367 0.05)
(1.1811 0.560703 0.05)
(1.25966 0.50891 0.05)
(1.3397 0.459227 0.05)
(1.42189 0.412851 0.05)
(1.50678 0.371194 0.05)
(1.59459 0.335509 0.05)
(1.68516 0.306827 0.05)
(1.77805 0.286148 0.05)
(1.87261 0.274352 0.05)
(1.96797 0.270632 0.05)
(2.06351 0.270491 0.05)
(2.15906 0.270491 0.05)
(2.25461 0.270491 0.05)
(2.35016 0.270491 0.05)
(2.44571 0.270491 0.05)
(2.54126 0.270491 0.05)
(2.6368 0.270491 0.05)
(2.73235 0.270491 0.05)
(2.8279 0.270491 0.05)
(2.92345 0.270491 0.05)
(3.019 0.270491 0.05)
(3.11455 0.270491 0.05)
(3.2101 0.270491 0.05)
(3.30564 0.270491 0.05)
(3.40119 0.270491 0.05)
(3.49674 0.270491 0.05)
(3.59229 0.270491 0.05)
(3.68784 0.270491 0.05)
(3.78339 0.270491 0.05)
(3.87894 0.270491 0.05)
(3.97448 0.270491 0.05)
(4.07003 0.270491 0.05)
(4.16558 0.270491 0.05)
(4.26113 0.270491 0.05)
(4.35668 0.270491 0.05)
(4.45223 0.270491 0.05)
(4.54778 0.270491 0.05)
(4.64332 0.270491 0.05)
(4.73887 0.270491 0.05)
(4.83442 0.270491 0.05)
(4.92997 0.270491 0.05)
(5.02552 0.270491 0.05)
(5.12107 0.270491 0.05)
(5.21662 0.270491 0.05)
(5.31217 0.270491 0.05)
(5.40771 0.270491 0.05)
(5.50326 0.270491 0.05)
(5.59881 0.270491 0.05)
(5.69436 0.270491 0.05)
(5.78991 0.270491 0.05)
(5.88546 0.270491 0.05)
(5.98101 0.270491 0.05)
(6.07655 0.270491 0.05)
(6.1721 0.270491 0.05)
(6.26765 0.270491 0.05)
(6.3632 0.270491 0.05)
(6.45875 0.270491 0.05)
(6.5543 0.270491 0.05)
(6.64985 0.270491 0.05)
(6.74539 0.270491 0.05)
(6.84094 0.270491 0.05)
(6.93649 0.270491 0.05)
(7.03204 0.270632 0.05)
(7.1274 0.274351 0.05)
(7.22195 0.286147 0.05)
(7.31485 0.306828 0.05)
(7.40541 0.335512 0.05)
(7.49322 0.371195 0.05)
(7.57811 0.412852 0.05)
(7.6603 0.45923 0.05)
(7.74035 0.50891 0.05)
(7.8189 0.560701 0.05)
(7.89659 0.613669 0.05)
(7.97389 0.667155 0.05)
(8.0509 0.721006 0.05)
(8.12748 0.775409 0.05)
(8.20344 0.830569 0.05)
(8.27863 0.886671 0.05)
(8.35325 0.943447 0.05)
(8.42826 0.999782 0.05)
(8.50505 1.0539 0.05)
(8.5853 1.1032 0.05)
(8.67087 1.1431 0.05)
(8.76213 1.1685 0.05)
(8.85674 1.17933 0.05)
(8.95223 1.18151 0.05)
(0.0476989 1.2308 0.05)
(0.143041 1.22868 0.05)
(0.237537 1.21813 0.05)
(0.328766 1.19342 0.05)
(0.414453 1.15457 0.05)
(0.494957 1.10659 0.05)
(0.572102 1.05391 0.05)
(0.64751 0.999077 0.05)
(0.722544 0.943811 0.05)
(0.798124 0.889201 0.05)
(0.874455 0.835501 0.05)
(0.951386 0.782545 0.05)
(1.02875 0.730128 0.05)
(1.10638 0.678064 0.05)
(1.1844 0.626505 0.05)
(1.26326 0.576087 0.05)
(1.34357 0.527724 0.05)
(1.42596 0.482579 0.05)
(1.51099 0.442028 0.05)
(1.59886 0.40729 0.05)
(1.68941 0.37937 0.05)
(1.78223 0.359239 0.05)
(1.87666 0.347756 0.05)
(1.97187 0.344135 0.05)
(2.06727 0.343998 0.05)
(2.16267 0.343998 0.05)
(2.25808 0.343998 0.05)
(2.35348 0.343998 0.05)
(2.44888 0.343998 0.05)
(2.54428 0.343998 0.05)
(2.63968 0.343998 0.05)
(2.73508 0.343998 0.05)
(2.83048 0.343998 0.05)
(2.92588 0.343998 0.05)
(3.02128 0.343998 0.05)
(3.11669 0.343998 0.05)
(3.21209 0.343998 0.05)
(3.30749 0.343998 0.05)
(3.40289 0.343998 0.05)
(3.49829 0.343998 0.05)
(3.59369 0.343998 0.05)
(3.68909 0.343998 0.05)
(3.78449 0.343998 0.05)
(3.87989 0.343998 0.05)
(3.9753 0.343998 0.05)
(4.0707 0.343998 0.05)
(4.1661 0.343998 0.05)
(4.2615 0.343998 0.05)
(4.3569 0.343998 0.05)
(4.4523 0.343998 0.05)
(4.5477 0.343998 0.05)
(4.6431 0.343998 0.05)
(4.7385 0.343998 0.05)
(4.83391 0.343998 0.05)
(4.92931 0.343998 0.05)
(5.02471 0.343998 0.05)
(5.12011 0.343998 0.05)
(5.21551 0.343998 0.05)
(5.31091 0.343998 0.05)
(5.40631 0.343998 0.05)
(5.50171 0.343998 0.05)
(5.59711 0.343998 0.05)
(5.69252 0.343998 0.05)
(5.78792 0.343998 0.05)
(5.88332 0.343998 0.05)
(5.97872 0.343998 0.05)
(6.07412 0.343998 0.05)
(6.16952 0.343998 0.05)
(6.26492 0.343998 0.05)
(6.36032 0.343998 0.05)
(6.45572 0.343998 0.05)
(6.55112 0.343998 0.05)
(6.64653 0.343998 0.05)
(6.74193 0.343998 0.05)
(6.83733 0.343998 0.05)
(6.93273 0.343998 0.05)
(7.02813 0.344135 0.05)
(7.12335 0.347756 0.05)
(7.21778 0.359238 0.05)
(7.3106 0.379371 0.05)
(7.40114 0.407293 0.05)
(7.48901 0.442029 0.05)
(7.57404 0.48258 0.05)
(7.65643 0.527727 0.05)
(7.73674 0.576087 0.05)
(7.81561 0.626503 0.05)
(7.89362 0.678063 0.05)
(7.97126 0.730127 0.05)
(8.04862 0.782547 0.05)
(8.12555 0.835504 0.05)
(8.20188 0.889198 0.05)
(8.27746 0.94381 0.05)
(8.35249 0.999077 0.05)
(8.4279 1.05391 0.05)
(8.50504 1.10659 0.05)
(8.58555 1.15457 0.05)
(8.67124 1.19342 0.05)
(8.76247 1.21813 0.05)
(8.85696 1.22868 0.05)
(8.9523 1.2308 0.05)
(0.047612 1.2889 0.05)
(0.142783 1.28684 0.05)
(0.237136 1.27664 0.05)
(0.328327 1.25273 0.05)
(0.414154 1.21514 0.05)
(0.494965 1.1687 0.05)
(0.572524 1.11772 0.05)
(0.648402 1.06465 0.05)
(0.723918 1.01117 0.05)
(0.799961 0.958313 0.05)
(0.876732 0.90634 0.05)
(0.954084 0.855089 0.05)
(1.03185 0.804359 0.05)
(1.10988 0.753971 0.05)
(1.18829 0.704071 0.05)
(1.26751 0.655275 0.05)
(1.34813 0.608467 0.05)
(1.43076 0.564773 0.05)
(1.51595 0.525525 0.05)
(1.60389 0.491903 0.05)
(1.69442 0.46488 0.05)
(1.78714 0.445396 0.05)
(1.88143 0.434282 0.05)
(1.97648 0.430778 0.05)
(2.07171 0.430645 0.05)
(2.16693 0.430645 0.05)
(2.26216 0.430645 0.05)
(2.35739 0.430645 0.05)
(2.45262 0.430645 0.05)
(2.54784 0.430645 0.05)
(2.64307 0.430645 0.05)
(2.7383 0.430645 0.05)
(2.83353 0.430645 0.05)
(2.92875 0.430645 0.05)
(3.02398 0.430645 0.05)
(3.11921 0.430645 0.05)
(3.21443 0.430645 0.05)
(3.30966 0.430645 0.05)
(3.40489 0.430645 0.05)
(3.50012 0.430645 0.05)
(3.59534 0.430645 0.05)
(3.69057 0.430645 0.05)
(3.7858 0.430645 0.05)
(3.88102 0.430645 0.05)
(3.97625 0.430645 0.05)
(4.07148 0.430645 0.05)
(4.16671 0.430645 0.05)
(4.26193 0.430645 0.05)
(4.35716 0.430645 0.05)
(4.45239 0.430645 0.05)
(4.54762 0.430645 0.05)
(4.64284 0.430645 0.05)
(4.73807 0.430645 0.05)
(4.8333 0.430645 0.05)
(4.92852 0.430645 0.05)
(5.02375 0.430645 0.05)
(5.11898 0.430645 0.05)
(5.21421 0.430645 0.05)
(5.30944 0.430645 0.05)
(5.40466 0.430645 0.05)
(5.49989 0.430645 0.05)
(5.59511 0.430645 0.05)
(5.69034 0.430645 0.05)
(5.78557 0.430645 0.05)
(5.8808 0.430645 0.05)
(5.97602 0.430645 0.05)
(6.07125 0.430645 0.05)
(6.16648 0.430645 0.05)
(6.26171 0.430645 0.05)
(6.35693 0.430645 0.05)
(6.45216 0.430645 0.05)
(6.54739 0.430645 0.05)
(6.64261 0.430645 0.05)
(6.73784 0.430645 0.05)
(6.83307 0.430645 0.05)
(6.9283 0.430645 0.05)
(7.02352 0.430778 0.05)
(7.11857 0.434282 0.05)
(7.21286 0.445395 0.05)
(7.30559 0.464881 0.05)
(7.39611 0.491906 0.05)
(7.48405 0.525526 0.05)
(7.56924 0.564774 0.05)
(7.65188 0.608469 0.05)
(7.7325 0.655275 0.05)
(7.81172 0.704069 0.05)
(7.89012 0.75397 0.05)
(7.96815 0.804358 0.05)
(8.04592 0.85509 0.05)
(8.12327 0.906344 0.05)
(8.20005 0.95831 0.05)
(8.27609 1.01116 0.05)
(8.3516 1.06465 0.05)
(8.42748 1.11772 0.05)
(8.50504 1.16871 0.05)
(8.58585 1.21514 0.05)
(8.67168 1.25273 0.05)
(8.76287 1.27664 0.05)
(8.85722 1.28685 0.05)
(8.95239 1.2889 0.05)
(0.0475096 1.35739 0.05)
(0.142479 1.35541 0.05)
(0.236663 1.34561 0.05)
(0.327809 1.32264 0.05)
(0.413802 1.28653 0.05)
(0.494974 1.24192 0.05)
(0.573022 1.19294 0.05)
(0.649453 1.14195 0.05)
(0.725536 1.09056 0.05)
(0.802127 1.03978 0.05)
(0.879416 0.989846 0.05)
(0.957264 0.940603 0.05)
(1.03551 0.891861 0.05)
(1.11401 0.843449 0.05)
(1.19287 0.795504 0.05)
(1.27251 0.748621 0.05)
(1.3535 0.703646 0.05)
(1.43642 0.661662 0.05)
(1.5218 0.623949 0.05)
(1.60982 0.591643 0.05)
(1.70032 0.565676 0.05)
(1.79294 0.546954 0.05)
(1.88706 0.536275 0.05)
(1.98191 0.532908 0.05)
(2.07693 0.532781 0.05)
(2.17196 0.532781 0.05)
(2.26698 0.532781 0.05)
(2.362 0.532781 0.05)
(2.45702 0.532781 0.05)
(2.55204 0.532781 0.05)
(2.64707 0.532781 0.05)
(2.74209 0.532781 0.05)
(2.83711 0.532781 0.05)
(2.93213 0.532781 0.05)
(3.02716 0.532781 0.05)
(3.12218 0.532781 0.05)
(3.2172 0.532781 0.05)
(3.31222 0.532781 0.05)
(3.40725 0.532781 0.05)
(3.50227 0.532781 0.05)
(3.59729 0.532781 0.05)
(3.69231 0.532781 0.05)
(3.78733 0.532781 0.05)
(3.88236 0.532781 0.05)
(3.97738 0.532781 0.05)
(4.0724 0.532781 0.05)
(4.16742 0.532781 0.05)
(4.26245 0.532781 0.05)
(4.35747 0.532781 0.05)
(4.45249 0.532781 0.05)
(4.54751 0.532781 0.05)
(4.64253 0.532781 0.05)
(4.73756 0.532781 0.05)
(4.83258 0.532781 0.05)
(4.9276 0.532781 0.05)
(5.02262 0.532781 0.05)
(5.11765 0.532781 0.05)
(5.21267 0.532781 0.05)
(5.30769 0.532781 0.05)
(5.40271 0.532781 0.05)
(5.49773 0.532781 0.05)
(5.59276 0.532781 0.05)
(5.68778 0.532781 0.05)
(5.7828 0.532781 0.05)
(5.87783 0.532781 0.05)
(5.97285 0.532781 0.05)
(6.06787 0.532781 0.05)
(6.16289 0.532781 0.05)
(6.25791 0.532781 0.05)
(6.35294 0.532781 0.05)
(6.44796 0.532781 0.05)
(6.54298 0.532781 0.05)
(6.638 0.532781 0.05)
(6.73303 0.532781 0.05)
(6.82805 0.532781 0.05)
(6.92307 0.532781 0.05)
(7.01809 0.532908 0.05)
(7.11294 0.536275 0.05)
(7.20706 0.546953 0.05)
(7.29968 0.565677 0.05)
(7.39018 0.591645 0.05)
(7.4782 0.62395 0.05)
(7.56358 0.661662 0.05)
(7.6465 0.703648 0.05)
(7.72749 0.74862 0.05)
(7.80713 0.795503 0.05)
(7.88599 0.843448 0.05)
(7.9645 0.89186 0.05)
(8.04274 0.940604 0.05)
(8.12058 0.989849 0.05)
(8.19788 1.03978 0.05)
(8.27447 1.09056 0.05)
(8.35055 1.14195 0.05)
(8.42698 1.19294 0.05)
(8.50503 1.24192 0.05)
(8.5862 1.28653 0.05)
(8.67219 1.32264 0.05)
(8.76334 1.34561 0.05)
(8.85752 1.35541 0.05)
(8.95249 1.35739 0.05)
(0.0473888 1.43812 0.05)
(0.14212 1.43624 0.05)
(0.236105 1.42691 0.05)
(0.3272 1.40505 0.05)
(0.413387 1.37068 0.05)
(0.494985 1.32823 0.05)
(0.573608 1.28161 0.05)
(0.650692 1.23308 0.05)
(0.727445 1.18416 0.05)
(0.80468 1.13582 0.05)
(0.882581 1.08828 0.05)
(0.961012 1.04141 0.05)
(1.03982 0.995009 0.05)
(1.11888 0.948925 0.05)
(1.19827 0.903286 0.05)
(1.27841 0.858655 0.05)
(1.35983 0.81584 0.05)
(1.4431 0.775872 0.05)
(1.52869 0.739968 0.05)
(1.61681 0.709212 0.05)
(1.70729 0.68449 0.05)
(1.79978 0.666667 0.05)
(1.8937 0.6565 0.05)
(1.98831 0.653295 0.05)
(2.08309 0.653174 0.05)
(2.17787 0.653174 0.05)
(2.27265 0.653174 0.05)
(2.36744 0.653174 0.05)
(2.46222 0.653174 0.05)
(2.557 0.653174 0.05)
(2.65178 0.653174 0.05)
(2.74656 0.653174 0.05)
(2.84134 0.653174 0.05)
(2.93612 0.653174 0.05)
(3.0309 0.653174 0.05)
(3.12568 0.653174 0.05)
(3.22046 0.653174 0.05)
(3.31524 0.653174 0.05)
(3.41002 0.653174 0.05)
(3.5048 0.653174 0.05)
(3.59958 0.653174 0.05)
(3.69436 0.653174 0.05)
(3.78915 0.653174 0.05)
(3.88393 0.653174 0.05)
(3.97871 0.653174 0.05)
(4.07349 0.653174 0.05)
(4.16827 0.653174 0.05)
(4.26305 0.653174 0.05)
(4.35783 0.653174 0.05)
(4.45261 0.653174 0.05)
(4.54739 0.653174 0.05)
(4.64217 0.653174 0.05)
(4.73695 0.653174 0.05)
(4.83174 0.653174 0.05)
(4.92652 0.653174 0.05)
(5.0213 0.653174 0.05)
(5.11608 0.653174 0.05)
(5.21086 0.653174 0.05)
(5.30564 0.653174 0.05)
(5.40042 0.653174 0.05)
(5.4952 0.653174 0.05)
(5.58998 0.653174 0.05)
(5.68476 0.653174 0.05)
(5.77954 0.653174 0.05)
(5.87432 0.653174 0.05)
(5.9691 0.653174 0.05)
(6.06388 0.653174 0.05)
(6.15866 0.653174 0.05)
(6.25345 0.653174 0.05)
(6.34823 0.653174 0.05)
(6.44301 0.653174 0.05)
(6.53779 0.653174 0.05)
(6.63257 0.653174 0.05)
(6.72735 0.653174 0.05)
(6.82213 0.653174 0.05)
(6.91691 0.653174 0.05)
(7.01169 0.653295 0.05)
(7.1063 0.6565 0.05)
(7.20023 0.666666 0.05)
(7.29272 0.684491 0.05)
(7.3832 0.709214 0.05)
(7.47131 0.739969 0.05)
(7.55691 0.775872 0.05)
(7.64017 0.815842 0.05)
(7.72159 0.858655 0.05)
(7.80173 0.903284 0.05)
(7.88112 0.948924 0.05)
(7.96018 0.995008 0.05)
(8.03899 1.04141 0.05)
(8.11742 1.08828 0.05)
(8.19533 1.13581 0.05)
(8.27256 1.18416 0.05)
(8.34931 1.23308 0.05)
(8.42639 1.28161 0.05)
(8.50502 1.32823 0.05)
(8.58662 1.37068 0.05)
(8.6728 1.40505 0.05)
(8.7639 1.42691 0.05)
(8.85788 1.43624 0.05)
(8.95261 1.43812 0.05)
(0.0472465 1.53328 0.05)
(0.141697 1.53151 0.05)
(0.235448 1.52274 0.05)
(0.326481 1.50219 0.05)
(0.412898 1.46988 0.05)
(0.494997 1.42997 0.05)
(0.574299 1.38613 0.05)
(0.652153 1.34049 0.05)
(0.729694 1.29449 0.05)
(0.80769 1.24902 0.05)
(0.886311 1.20432 0.05)
(0.965431 1.16023 0.05)
(1.04491 1.1166 0.05)
(1.12462 1.07326 0.05)
(1.20464 1.03034 0.05)
(1.28537 0.988362 0.05)
(1.3673 0.948094 0.05)
(1.45096 0.9105 0.05)
(1.53682 0.876729 0.05)
(1.62504 0.847798 0.05)
(1.71549 0.824544 0.05)
(1.80784 0.807778 0.05)
(1.90152 0.798216 0.05)
(1.99586 0.795202 0.05)
(2.09035 0.795088 0.05)
(2.18485 0.795088 0.05)
(2.27935 0.795088 0.05)
(2.37384 0.795088 0.05)
(2.46834 0.795088 0.05)
(2.56283 0.795088 0.05)
(2.65733 0.795088 0.05)
(2.75183 0.795088 0.05)
(2.84632 0.795088 0.05)
(2.94082 0.795088 0.05)
(3.03531 0.795088 0.05)
(3.12981 0.795088 0.05)
(3.22431 0.795088 0.05)
(3.3188 0.795088 0.05)
(3.4133 0.795088 0.05)
(3.50779 0.795088 0.05)
(3.60229 0.795088 0.05)
(3.69678 0.795088 0.05)
(3.79128 0.795088 0.05)
(3.88578 0.795088 0.05)
(3.98027 0.795088 0.05)
(4.07477 0.795088 0.05)
(4.16926 0.795088 0.05)
(4.26376 0.795088 0.05)
(4.35826 0.795088 0.05)
(4.45275 0.795088 0.05)
(4.54725 0.795088 0.05)
(4.64175 0.795088 0.05)
(4.73624 0.795088 0.05)
(4.83074 0.795088 0.05)
(4.92523 0.795088 0.05)
(5.01973 0.795088 0.05)
(5.11423 0.795088 0.05)
(5.20872 0.795088 0.05)
(5.30322 0.795088 0.05)
(5.39771 0.795088 0.05)
(5.49221 0.795088 0.05)
(5.58671 0.795088 0.05)
(5.6812 0.795088 0.05)
(5.7757 0.795088 0.05)
(5.87019 0.795088 0.05)
(5.96469 0.795088 0.05)
(6.05919 0.795088 0.05)
(6.15368 0.795088 0.05)
(6.24818 0.795088 0.05)
(6.34267 0.795088 0.05)
(6.43717 0.795088 0.05)
(6.53166 0.795088 0.05)
(6.62616 0.795088 0.05)
(6.72066 0.795088 0.05)
(6.81515 0.795088 0.05)
(6.90965 0.795088 0.05)
(7.00414 0.795202 0.05)
(7.09848 0.798215 0.05)
(7.19217 0.807778 0.05)
(7.28451 0.824545 0.05)
(7.37496 0.8478 0.05)
(7.46318 0.876729 0.05)
(7.54904 0.910501 0.05)
(7.6327 0.948096 0.05)
(7.71464 0.988362 0.05)
(7.79536 1.03034 0.05)
(7.87539 1.07326 0.05)
(7.9551 1.1166 0.05)
(8.03457 1.16024 0.05)
(8.11369 1.20432 0.05)
(8.19232 1.24902 0.05)
(8.27031 1.29449 0.05)
(8.34785 1.34049 0.05)
(8.4257 1.38613 0.05)
(8.505 1.42997 0.05)
(8.58711 1.46988 0.05)
(8.67352 1.50219 0.05)
(8.76456 1.52274 0.05)
(8.85831 1.53151 0.05)
(8.95276 1.53328 0.05)
(0.0470787 1.64545 0.05)
(0.141198 1.64381 0.05)
(0.234673 1.6357 0.05)
(0.325634 1.6167 0.05)
(0.412322 1.58682 0.05)
(0.495012 1.5499 0.05)
(0.575114 1.50934 0.05)
(0.653875 1.46712 0.05)
(0.732346 1.42454 0.05)
(0.811237 1.38247 0.05)
(0.890708 1.3411 0.05)
(0.97064 1.30031 0.05)
(1.0509 1.25993 0.05)
(1.13138 1.21983 0.05)
(1.21215 1.18011 0.05)
(1.29357 1.14126 0.05)
(1.3761 1.10399 0.05)
(1.46023 1.0692 0.05)
(1.5464 1.03794 0.05)