/*--------------------------------*- C++ -*----------------------------------*\
| =========                 |                                                 |
| \\      /  F ield         | OpenFOAM: The Open Source CFD Toolbox           |
|  \\    /   O peration     | Version:  v1912                                 |
|   \\  /    A nd           | Website:  www.openfoam.com                      |
|    \\/     M anipulation  |                                                 |
\*---------------------------------------------------------------------------*/
FoamFile
{
    version     2.0;
    format      ascii;
    class       volScalarField;
    location    "0";
    object      Cx;
}
// * * * * * * * * * * * * * * * * * * * * * * * * * * * * * * * * * * * * * //

dimensions      [0 1 0 0 0 0 0];


internalField   nonuniform List<scalar> 
3000
(
0.0480314
0.144029
0.239073
0.330444
0.415595
0.494927
0.570489
0.6441
0.717292
0.791096
0.865745
0.941068
1.01687
1.09299
1.16953
1.24702
1.32614
1.40759
1.49201
1.57962
1.67024
1.76341
1.85839
1.95425
2.05032
2.14638
2.24245
2.33851
2.43458
2.53065
2.62671
2.72278
2.81884
2.91491
3.01098
3.10704
3.20311
3.29918
3.39524
3.49131
3.58737
3.68344
3.77951
3.87557
3.97164
4.0677
4.16377
4.25984
4.3559
4.45197
4.54804
4.6441
4.74017
4.83623
4.9323
5.02837
5.12443
5.2205
5.31657
5.41263
5.50869
5.60476
5.70083
5.79689
5.89296
5.98903
6.08509
6.18116
6.27723
6.37329
6.46936
6.56542
6.66149
6.75756
6.85362
6.94969
7.04575
7.14161
7.2366
7.32976
7.42038
7.50799
7.59241
7.67387
7.75298
7.83048
7.90702
7.98313
8.05893
8.13425
8.20891
8.28271
8.3559
8.42951
8.50507
8.58441
8.66956
8.76093
8.85597
8.95197
0.0480039
0.143947
0.238946
0.330305
0.4155
0.494929
0.570622
0.644382
0.717726
0.791677
0.866465
0.941921
1.01785
1.09409
1.17076
1.24836
1.32758
1.40911
1.49358
1.58121
1.67183
1.76496
1.8599
1.95571
2.05172
2.14773
2.24374
2.33975
2.43576
2.53177
2.62778
2.7238
2.81981
2.91582
3.01183
3.10784
3.20385
3.29986
3.39587
3.49189
3.58789
3.68391
3.77992
3.87593
3.97194
4.06795
4.16396
4.25997
4.35599
4.452
4.54801
4.64402
4.74003
4.83604
4.93205
5.02806
5.12407
5.22009
5.3161
5.41211
5.50812
5.60413
5.70014
5.79615
5.89216
5.98817
6.08419
6.1802
6.27621
6.37222
6.46823
6.56424
6.66025
6.75626
6.85227
6.94829
7.04429
7.1401
7.23504
7.32818
7.41879
7.50642
7.59089
7.67242
7.75164
7.82925
7.90591
7.98215
8.05808
8.13353
8.20833
8.28228
8.35562
8.42938
8.50507
8.5845
8.6697
8.76106
8.85606
8.952
0.0479715
0.143851
0.238796
0.330142
0.415389
0.494932
0.57078
0.644714
0.718238
0.792362
0.867314
0.942927
1.01901
1.0954
1.17221
1.24995
1.32928
1.4109
1.49543
1.58309
1.67369
1.7668
1.86168
1.95743
2.05337
2.14932
2.24526
2.34121
2.43716
2.5331
2.62905
2.72499
2.82094
2.91689
3.01283
3.10878
3.20473
3.30067
3.39662
3.49257
3.58851
3.68446
3.7804
3.87635
3.9723
4.06824
4.16419
4.26014
4.35608
4.45203
4.54798
4.64392
4.73987
4.83582
4.93176
5.02771
5.12365
5.2196
5.31555
5.41149
5.50744
5.60338
5.69933
5.79528
5.89122
5.98717
6.08312
6.17906
6.27501
6.37096
6.4669
6.56285
6.65879
6.75474
6.85069
6.94663
7.04258
7.13832
7.23321
7.32631
7.41691
7.50457
7.5891
7.67073
7.75006
7.8278
7.90461
7.98099
8.05708
8.13269
8.20764
8.28177
8.35529
8.42922
8.50507
8.58462
8.66986
8.76121
8.85615
8.95203
0.0479333
0.143738
0.23862
0.329949
0.415258
0.494936
0.570965
0.645106
0.718841
0.793169
0.868315
0.944112
1.02037
1.09694
1.17392
1.25181
1.33128
1.41301
1.49761
1.5853
1.67589
1.76896
1.86378
1.95945
2.05532
2.15119
2.24706
2.34293
2.4388
2.53467
2.63054
2.72641
2.82228
2.91815
3.01402
3.10989
3.20576
3.30163
3.3975
3.49337
3.58924
3.68511
3.78098
3.87685
3.97272
4.06859
4.16446
4.26033
4.3562
4.45207
4.54794
4.64381
4.73968
4.83555
4.93142
5.02729
5.12316
5.21903
5.3149
5.41077
5.50663
5.60251
5.69838
5.79425
5.89012
5.98599
6.08186
6.17773
6.2736
6.36947
6.46534
6.5612
6.65708
6.75295
6.84882
6.94469
7.04055
7.13622
7.23105
7.32411
7.4147
7.50239
7.58699
7.66872
7.74819
7.82609
7.90307
7.97963
8.05589
8.13169
8.20684
8.28116
8.3549
8.42904
8.50506
8.58475
8.67006
8.76138
8.85627
8.95207
0.0478883
0.143604
0.238412
0.329722
0.415103
0.49494
0.571183
0.645568
0.719552
0.794121
0.869494
0.945509
1.02198
1.09875
1.17593
1.25401
1.33364
1.4155
1.50018
1.5879
1.67849
1.77151
1.86625
1.96184
2.05762
2.15339
2.24917
2.34495
2.44073
2.53651
2.63229
2.72807
2.82385
2.91963
3.01541
3.11119
3.20697
3.30275
3.39853
3.49431
3.59009
3.68587
3.78165
3.87743
3.97321
4.06899
4.16477
4.26055
4.35633
4.45211
4.54789
4.64367
4.73945
4.83523
4.93101
5.02679
5.12257
5.21835
5.31413
5.40991
5.50569
5.60147
5.69725
5.79303
5.88881
5.98459
6.08037
6.17615
6.27193
6.36771
6.46349
6.55927
6.65505
6.75083
6.84661
6.94239
7.03817
7.13375
7.2285
7.32151
7.4121
7.49982
7.5845
7.66636
7.74599
7.82408
7.90125
7.97802
8.05449
8.13051
8.20589
8.28045
8.35444
8.42882
8.50506
8.5849
8.67028
8.76159
8.8564
8.95212
0.0478352
0.143446
0.238167
0.329454
0.414921
0.494945
0.571441
0.646112
0.720391
0.795243
0.870884
0.947156
1.02388
1.10089
1.1783
1.2566
1.33642
1.41843
1.50321
1.59097
1.68155
1.77451
1.86917
1.96465
2.06032
2.156
2.25167
2.34734
2.44302
2.53869
2.63436
2.73004
2.82571
2.92139
3.01706
3.11273
3.20841
3.30408
3.39975
3.49543
3.5911
3.68677
3.78245
3.87812
3.9738
4.06947
4.16514
4.26082
4.35649
4.45216
4.54784
4.64351
4.73919
4.83486
4.93053
5.02621
5.12188
5.21756
5.31323
5.4089
5.50457
5.60025
5.69592
5.7916
5.88727
5.98294
6.07862
6.17429
6.26997
6.36564
6.46131
6.55699
6.65266
6.74833
6.84401
6.93968
7.03535
7.13083
7.22549
7.31845
7.40903
7.49679
7.58157
7.66358
7.7434
7.8217
7.89911
7.97613
8.05285
8.12912
8.20476
8.27961
8.35389
8.42856
8.50506
8.58508
8.67055
8.76184
8.85656
8.95217
0.0477727
0.14326
0.237878
0.329138
0.414706
0.49495
0.571745
0.646754
0.721379
0.796565
0.872523
0.949097
1.02611
1.10341
1.1811
1.25966
1.3397
1.42189
1.50678
1.59459
1.68516
1.77805
1.87261
1.96797
2.06351
2.15906
2.25461
2.35016
2.44571
2.54126
2.6368
2.73235
2.8279
2.92345
3.019
3.11455
3.2101
3.30564
3.40119
3.49674
3.59229
3.68784
3.78339
3.87894
3.97448
4.07003
4.16558
4.26113
4.35668
4.45223
4.54778
4.64332
4.73887
4.83442
4.92997
5.02552
5.12107
5.21662
5.31217
5.40771
5.50326
5.59881
5.69436
5.78991
5.88546
5.98101
6.07655
6.1721
6.26765
6.3632
6.45875
6.5543
6.64985
6.74539
6.84094
6.93649
7.03204
7.1274
7.22195
7.31485
7.40541
7.49322
7.57811
7.6603
7.74035
7.8189
7.89659
7.97389
8.0509
8.12748
8.20344
8.27863
8.35325
8.42826
8.50505
8.5853
8.67087
8.76213
8.85674
8.95223
0.0476989
0.143041
0.237537
0.328766
0.414453
0.494957
0.572102
0.64751
0.722544
0.798124
0.874455
0.951386
1.02875
1.10638
1.1844
1.26326
1.34357
1.42596
1.51099
1.59886
1.68941
1.78223
1.87666
1.97187
2.06727
2.16267
2.25808
2.35348
2.44888
2.54428
2.63968
2.73508
2.83048
2.92588
3.02128
3.11669
3.21209
3.30749
3.40289
3.49829
3.59369
3.68909
3.78449
3.87989
3.9753
4.0707
4.1661
4.2615
4.3569
4.4523
4.5477
4.6431
4.7385
4.83391
4.92931
5.02471
5.12011
5.21551
5.31091
5.40631
5.50171
5.59711
5.69252
5.78792
5.88332
5.97872
6.07412
6.16952
6.26492
6.36032
6.45572
6.55112
6.64653
6.74193
6.83733
6.93273
7.02813
7.12335
7.21778
7.3106
7.40114
7.48901
7.57404
7.65643
7.73674
7.81561
7.89362
7.97126
8.04862
8.12555
8.20188
8.27746
8.35249
8.4279
8.50504
8.58555
8.67124
8.76247
8.85696
8.9523
0.047612
0.142783
0.237136
0.328327
0.414154
0.494965
0.572524
0.648402
0.723918
0.799961
0.876732
0.954084
1.03185
1.10988
1.18829
1.26751
1.34813
1.43076
1.51595
1.60389
1.69442
1.78714
1.88143
1.97648
2.07171
2.16693
2.26216
2.35739
2.45262
2.54784
2.64307
2.7383
2.83353
2.92875
3.02398
3.11921
3.21443
3.30966
3.40489
3.50012
3.59534
3.69057
3.7858
3.88102
3.97625
4.07148
4.16671
4.26193
4.35716
4.45239
4.54762
4.64284
4.73807
4.8333
4.92852
5.02375
5.11898
5.21421
5.30944
5.40466
5.49989
5.59511
5.69034
5.78557
5.8808
5.97602
6.07125
6.16648
6.26171
6.35693
6.45216
6.54739
6.64261
6.73784
6.83307
6.9283
7.02352
7.11857
7.21286
7.30559
7.39611
7.48405
7.56924
7.65188
7.7325
7.81172
7.89012
7.96815
8.04592
8.12327
8.20005
8.27609
8.3516
8.42748
8.50504
8.58585
8.67168
8.76287
8.85722
8.95239
0.0475096
0.142479
0.236663
0.327809
0.413802
0.494974
0.573022
0.649453
0.725536
0.802127
0.879416
0.957264
1.03551
1.11401
1.19287
1.27251
1.3535
1.43642
1.5218
1.60982
1.70032
1.79294
1.88706
1.98191
2.07693
2.17196
2.26698
2.362
2.45702
2.55204
2.64707
2.74209
2.83711
2.93213
3.02716
3.12218
3.2172
3.31222
3.40725
3.50227
3.59729
3.69231
3.78733
3.88236
3.97738
4.0724
4.16742
4.26245
4.35747
4.45249
4.54751
4.64253
4.73756
4.83258
4.9276
5.02262
5.11765
5.21267
5.30769
5.40271
5.49773
5.59276
5.68778
5.7828
5.87783
5.97285
6.06787
6.16289
6.25791
6.35294
6.44796
6.54298
6.638
6.73303
6.82805
6.92307
7.01809
7.11294
7.20706
7.29968
7.39018
7.4782
7.56358
7.6465
7.72749
7.80713
7.88599
7.9645
8.04274
8.12058
8.19788
8.27447
8.35055
8.42698
8.50503
8.5862
8.67219
8.76334
8.85752
8.95249
0.0473888
0.14212
0.236105
0.3272
0.413387
0.494985
0.573608
0.650692
0.727445
0.80468
0.882581
0.961012
1.03982
1.11888
1.19827
1.27841
1.35983
1.4431
1.52869
1.61681
1.70729
1.79978
1.8937
1.98831
2.08309
2.17787
2.27265
2.36744
2.46222
2.557
2.65178
2.74656
2.84134
2.93612
3.0309
3.12568
3.22046
3.31524
3.41002
3.5048
3.59958
3.69436
3.78915
3.88393
3.97871
4.07349
4.16827
4.26305
4.35783
4.45261
4.54739
4.64217
4.73695
4.83174
4.92652
5.0213
5.11608
5.21086
5.30564
5.40042
5.4952
5.58998
5.68476
5.77954
5.87432
5.9691
6.06388
6.15866
6.25345
6.34823
6.44301
6.53779
6.63257
6.72735
6.82213
6.91691
7.01169
7.1063
7.20023
7.29272
7.3832
7.47131
7.55691
7.64017
7.72159
7.80173
7.88112
7.96018
8.03899
8.11742
8.19533
8.27256
8.34931
8.42639
8.50502
8.58662
8.6728
8.7639
8.85788
8.95261
0.0472465
0.141697
0.235448
0.326481
0.412898
0.494997
0.574299
0.652153
0.729694
0.80769
0.886311
0.965431
1.04491
1.12462
1.20464
1.28537
1.3673
1.45096
1.53682
1.62504
1.71549
1.80784
1.90152
1.99586
2.09035
2.18485
2.27935
2.37384
2.46834
2.56283
2.65733
2.75183
2.84632
2.94082
3.03531
3.12981
3.22431
3.3188
3.4133
3.50779
3.60229
3.69678
3.79128
3.88578
3.98027
4.07477
4.16926
4.26376
4.35826
4.45275
4.54725
4.64175
4.73624
4.83074
4.92523
5.01973
5.11423
5.20872
5.30322
5.39771
5.49221
5.58671
5.6812
5.7757
5.87019
5.96469
6.05919
6.15368
6.24818
6.34267
6.43717
6.53166
6.62616
6.72066
6.81515
6.90965
7.00414
7.09848
7.19217
7.28451
7.37496
7.46318
7.54904
7.6327
7.71464
7.79536
7.87539
7.9551
8.03457
8.11369
8.19232
8.27031
8.34785
8.4257
8.505
8.58711
8.67352
8.76456
8.85831
8.95276
0.0470787
0.141198
0.234673
0.325634
0.412322
0.495012
0.575114
0.653875
0.732346
0.811237
0.890708
0.97064
1.0509
1.13138
1.21215
1.29357
1.3761
1.46023
1.5464
1.63475
1.72517
1.81733
1.91074
2.00476
2.09891
2.19307
2.28723
2.38139
2.47556
2.56972
2.66388
2.75804
2.8522
2.94636
3.04052
3.13468
3.22884
3.323
3.41716
3.51132
3.60548
3.69964
3.7938
3.88796
3.98212
4.07628
4.17044
4.2646
4.35876
4.45292
4.54708
4.64124
4.7354
4.82956
4.92372
5.01788
5.11204
5.2062
5.30037
5.39453
5.48868
5.58285
5.67701
5.77117
5.86533
5.95949
6.05365
6.14781
6.24197
6.33613
6.43029
6.52445
6.61861
6.71277
6.80693
6.90109
6.99525
7.08926
7.18267
7.27483
7.36525
7.4536
7.53977
7.6239
7.70644
7.78786
7.86863
7.9491
8.02936
8.10929
8.18877
8.26766
8.34613
8.42489
8.50499
8.58768
8.67437
8.76533
8.8588
8.95292
0.0468809
0.140611
0.233759
0.324635
0.411642
0.49503
0.576074
0.655904
0.735472
0.81542
0.895891
0.976781
1.05797
1.13935
1.221
1.30323
1.38647
1.47116
1.55769
1.6462
1.73657
1.82853
1.92161
2.01524
2.109
2.20277
2.29653
2.3903
2.48406
2.57783
2.67159
2.76536
2.85912
2.95289
3.04665
3.14041
3.23418
3.32794
3.42171
3.51547
3.60924
3.703
3.79677
3.89053
3.9843
4.07806
4.17182
4.26559
4.35936
4.45312
4.54688
4.64065
4.73441
4.82818
4.92194
5.01571
5.10947
5.20324
5.297
5.39077
5.48453
5.5783
5.67206
5.76582
5.85959
5.95335
6.04712
6.14088
6.23465
6.32841
6.42218
6.51594
6.60971
6.70347
6.79724
6.891
6.98476
7.07839
7.17148
7.26343
7.3538
7.44231
7.52884
7.61353
7.69677
7.77901
7.86065
7.94204
8.02322
8.10411
8.18459
8.26453
8.3441
8.42393
8.50497
8.58836
8.67537
8.76624
8.85939
8.95312
0.0466478
0.139918
0.232683
0.323457
0.410841
0.495051
0.577206
0.658297
0.739157
0.82035
0.902001
0.984019
1.0663
1.14875
1.23143
1.31462
1.3987
1.48405
1.571
1.65969
1.75001
1.84172
1.93442
2.0276
2.1209
2.21419
2.30749
2.40079
2.49409
2.58739
2.68069
2.77398
2.86728
2.96058
3.05388
3.14718
3.24048
3.33377
3.42707
3.52037
3.61367
3.70697
3.80026
3.89356
3.98686
4.08016
4.17346
4.26676
4.36006
4.45335
4.54665
4.63995
4.73325
4.82655
4.91984
5.01314
5.10644
5.19974
5.29304
5.38634
5.47963
5.57293
5.66623
5.75953
5.85283
5.94613
6.03942
6.13272
6.22602
6.31932
6.41262
6.50591
6.59921
6.69251
6.78581
6.87911
6.9724
7.06558
7.15828
7.24999
7.34031
7.429
7.51596
7.6013
7.68538
7.76858
7.85126
7.93371
8.01598
8.098
8.17966
8.26085
8.34171
8.4228
8.50495
8.58916
8.67655
8.76732
8.86009
8.95336
0.0463955
0.139168
0.231517
0.322184
0.409974
0.495074
0.57843
0.660885
0.743143
0.825682
0.90861
0.991849
1.07531
1.15891
1.24271
1.32695
1.41193
1.49799
1.5854
1.67429
1.76456
1.856
1.94828
2.04097
2.13377
2.22656
2.31935
2.41215
2.50494
2.59773
2.69053
2.78332
2.87611
2.96891
3.0617
3.1545
3.24729
3.34008
3.43288
3.52567
3.61846
3.71126
3.80405
3.89684
3.98964
4.08243
4.17522
4.26802
4.36081
4.4536
4.5464
4.63919
4.73199
4.82478
4.91757
5.01037
5.10316
5.19595
5.28875
5.38154
5.47433
5.56713
5.65992
5.75271
5.84551
5.9383
6.0311
6.12389
6.21668
6.30948
6.40227
6.49506
6.58786
6.68065
6.77344
6.86624
6.95903
7.05172
7.144
7.23544
7.32571
7.4146
7.50202
7.58807
7.67305
7.75729
7.84109
7.92469
8.00815
8.09139
8.17432
8.25686
8.33912
8.42157
8.50493
8.59003
8.67782
8.76849
8.86084
8.95361
0.0461623
0.138475
0.23044
0.321006
0.409174
0.495095
0.579562
0.663276
0.746825
0.830609
0.914716
0.999083
1.08363
1.16831
1.25314
1.33834
1.42415
1.51087
1.59871
1.68778
1.778
1.8692
1.9611
2.05334
2.14566
2.23799
2.33032
2.42264
2.51497
2.6073
2.69962
2.79195
2.88428
2.97661
3.06893
3.16126
3.25359
3.34591
3.43824
3.53057
3.62289
3.71522
3.80755
3.89988
3.9922
4.08453
4.17686
4.26918
4.36151
4.45384
4.54617
4.63849
4.73082
4.82315
4.91547
5.0078
5.10013
5.19246
5.28478
5.37711
5.46944
5.56176
5.65409
5.74642
5.83874
5.93107
6.0234
6.11573
6.20805
6.30038
6.39271
6.48503
6.57736
6.66969
6.76201
6.85434
6.94667
7.0389
7.1308
7.222
7.31222
7.40129
7.48914
7.57585
7.66167
7.74686
7.8317
7.91637
8.00092
8.08529
8.1694
8.25318
8.33673
8.42044
8.50491
8.59083
8.679
8.76956
8.86153
8.95384
0.0459644
0.137887
0.229527
0.320008
0.408494
0.495112
0.580521
0.665304
0.749949
0.834788
0.919897
1.00522
1.0907
1.17627
1.26199
1.348
1.43453
1.5218
1.61
1.69923
1.78941
1.8804
1.97197
2.06382
2.15575
2.24768
2.33962
2.43155
2.52348
2.61541
2.70734
2.79927
2.8912
2.98314
3.07507
3.167
3.25893
3.35086
3.44279
3.53472
3.62665
3.71859
3.81052
3.90245
3.99438
4.08631
4.17824
4.27017
4.36211
4.45404
4.54597
4.6379
4.72983
4.82176
4.91369
5.00562
5.09756
5.18949
5.28142
5.37335
5.46528
5.55721
5.64914
5.74107
5.83301
5.92494
6.01687
6.1088
6.20073
6.29266
6.38459
6.47652
6.56846
6.66039
6.75232
6.84425
6.93618
7.02803
7.1196
7.21059
7.30077
7.39
7.47821
7.56548
7.65201
7.73802
7.82373
7.90931
7.99478
8.08011
8.16522
8.25005
8.3347
8.41948
8.50489
8.59151
8.68
8.77048
8.86212
8.95404
0.0457966
0.137389
0.228752
0.31916
0.407918
0.495127
0.581335
0.667025
0.7526
0.838334
0.924292
1.01043
1.09669
1.18303
1.26949
1.35619
1.44332
1.53107
1.61958
1.70894
1.79909
1.8899
1.98119
2.07272
2.16431
2.25591
2.34751
2.4391
2.5307
2.62229
2.71389
2.80548
2.89708
2.98867
3.08027
3.17187
3.26346
3.35506
3.44665
3.53825
3.62984
3.72144
3.81303
3.90463
3.99623
4.08782
4.17942
4.27101
4.36261
4.4542
4.5458
4.63739
4.72899
4.82059
4.91218
5.00378
5.09537
5.18697
5.27856
5.37016
5.46176
5.55335
5.64495
5.73654
5.82814
5.91973
6.01133
6.10292
6.19452
6.28612
6.37771
6.46931
6.5609
6.6525
6.74409
6.83569
6.92728
7.01881
7.1101
7.20092
7.29106
7.38042
7.46894
7.55668
7.64381
7.73051
7.81697
7.90331
7.98958
8.07571
8.16167
8.2474
8.33298
8.41867
8.50488
8.59209
8.68084
8.77125
8.86261
8.95421
0.0456542
0.136966
0.228094
0.318442
0.407429
0.49514
0.582026
0.668485
0.754848
0.841343
0.92802
1.01484
1.10177
1.18877
1.27586
1.36315
1.45079
1.53893
1.62771
1.71718
1.80729
1.89796
1.98902
2.08027
2.17158
2.26289
2.3542
2.44551
2.53682
2.62813
2.71944
2.81075
2.90206
2.99337
3.08468
3.176
3.26731
3.35862
3.44993
3.54124
3.63255
3.72386
3.81517
3.90648
3.99779
4.0891
4.18041
4.27172
4.36304
4.45435
4.54566
4.63697
4.72828
4.81959
4.9109
5.00221
5.09352
5.18483
5.27614
5.36745
5.45876
5.55008
5.64139
5.7327
5.82401
5.91532
6.00663
6.09794
6.18925
6.28056
6.37187
6.46318
6.55449
6.64581
6.73712
6.82843
6.91974
7.01099
7.10205
7.19271
7.28283
7.37229
7.46107
7.54922
7.63686
7.72415
7.81123
7.89823
7.98516
8.07198
8.15866
8.24516
8.33152
8.41798
8.50486
8.59257
8.68156
8.77191
8.86304
8.95435
0.0455335
0.136607
0.227537
0.317832
0.407014
0.495151
0.582612
0.669723
0.756756
0.843895
0.931183
1.01859
1.10609
1.19363
1.28126
1.36905
1.45712
1.5456
1.6346
1.72417
1.81426
1.9048
1.99565
2.08667
2.17774
2.26881
2.35988
2.45095
2.54201
2.63308
2.72415
2.81522
2.90629
2.99736
3.08843
3.1795
3.27057
3.36164
3.45271
3.54378
3.63484
3.72591
3.81698
3.90805
3.99912
4.09019
4.18126
4.27233
4.3634
4.45447
4.54554
4.63661
4.72767
4.81874
4.90981
5.00088
5.09195
5.18302
5.27409
5.36516
5.45623
5.5473
5.63837
5.72944
5.82051
5.91157
6.00264
6.09371
6.18478
6.27585
6.36692
6.45799
6.54906
6.64013
6.7312
6.82227
6.91333
7.00435
7.09521
7.18575
7.27584
7.3654
7.4544
7.54288
7.63096
7.71875
7.80637
7.89392
7.98141
8.06882
8.15611
8.24325
8.33028
8.41739
8.50485
8.59299
8.68217
8.77247
8.8634
8.95447
0.045431
0.136302
0.227063
0.317315
0.406663
0.49516
0.583109
0.670774
0.758374
0.84606
0.933867
1.02177
1.10974
1.19776
1.28584
1.37405
1.46249
1.55126
1.64045
1.73009
1.82016
1.91059
2.00128
2.0921
2.18296
2.27383
2.36469
2.45556
2.54642
2.63729
2.72815
2.81901
2.90988
3.00074
3.09161
3.18247
3.27333
3.3642
3.45506
3.54593
3.63679
3.72766
3.81852
3.90938
4.00025
4.09111
4.18198
4.27284
4.36371
4.45457
4.54543
4.6363
4.72716
4.81803
4.90889
4.99975
5.09062
5.18148
5.27235
5.36321
5.45408
5.54494
5.6358
5.72667
5.81753
5.9084
5.99926
6.09013
6.18099
6.27185
6.36272
6.45358
6.54445
6.63531
6.72618
6.81704
6.9079
6.99872
7.08941
7.17984
7.26991
7.35955
7.44874
7.53751
7.62595
7.71416
7.80224
7.89026
7.97823
8.06614
8.15394
8.24163
8.32923
8.41689
8.50484
8.59334
8.68269
8.77294
8.8637
8.95457
0.0453441
0.136044
0.226662
0.316876
0.406364
0.495168
0.583531
0.671665
0.759747
0.847897
0.936143
1.02447
1.11285
1.20126
1.28973
1.3783
1.46705
1.55606
1.64541
1.73512
1.82517
1.91551
2.00606
2.09671
2.1874
2.27809
2.36878
2.45947
2.55016
2.64085
2.73154
2.82223
2.91292
3.00361
3.0943
3.18499
3.27568
3.36637
3.45706
3.54775
3.63844
3.72913
3.81982
3.91051
4.00121
4.0919
4.18259
4.27328
4.36397
4.45466
4.54535
4.63604
4.72673
4.81742
4.90811
4.9988
5.08949
5.18018
5.27087
5.36156
5.45225
5.54294
5.63363
5.72432
5.81501
5.9057
5.99639
6.08708
6.17777
6.26846
6.35915
6.44984
6.54053
6.63122
6.72191
6.81261
6.90329
6.99395
7.08449
7.17483
7.26488
7.35459
7.44394
7.53295
7.62171
7.71028
7.79874
7.88716
7.97554
8.06386
8.15211
8.24026
8.32834
8.41647
8.50484
8.59364
8.68313
8.77334
8.86396
8.95466
0.0452703
0.135825
0.226322
0.316504
0.406111
0.495175
0.583889
0.672422
0.760912
0.849455
0.938075
1.02676
1.11548
1.20423
1.29302
1.3819
1.47091
1.56014
1.64962
1.73939
1.82943
1.91969
2.01011
2.10062
2.19116
2.2817
2.37225
2.46279
2.55333
2.64387
2.73442
2.82496
2.9155
3.00605
3.09659
3.18713
3.27767
3.36822
3.45876
3.5493
3.63984
3.73039
3.82093
3.91147
4.00202
4.09256
4.1831
4.27364
4.36419
4.45473
4.54527
4.63582
4.72636
4.8169
4.90744
4.99799
5.08853
5.17907
5.26962
5.36016
5.4507
5.54124
5.63179
5.72233
5.81287
5.90342
5.99396
6.0845
6.17504
6.26559
6.35613
6.44667
6.53722
6.62776
6.7183
6.80884
6.89939
6.98989
7.08032
7.17058
7.26061
7.35038
7.43987
7.52909
7.61811
7.70698
7.79577
7.88452
7.97325
8.06193
8.15055
8.23909
8.32758
8.41611
8.50483
8.59389
8.6835
8.77368
8.86418
8.95473
0.0452078
0.135639
0.226033
0.316188
0.405896
0.49518
0.584192
0.673063
0.7619
0.850777
0.939713
1.0287
1.11771
1.20675
1.29582
1.38495
1.47419
1.56359
1.65319
1.74301
1.83303
1.92323
2.01355
2.10393
2.19435
2.28477
2.37519
2.4656
2.55602
2.64644
2.73686
2.82727
2.91769
3.00811
3.09853
3.18895
3.27936
3.36978
3.4602
3.55062
3.64103
3.73145
3.82187
3.91229
4.0027
4.09312
4.18354
4.27396
4.36438
4.45479
4.54521
4.63563
4.72605
4.81646
4.90688
4.9973
5.08772
5.17813
5.26855
5.35897
5.44939
5.53981
5.63022
5.72064
5.81106
5.90148
5.99189
6.08231
6.17273
6.26315
6.35356
6.44398
6.5344
6.62482
6.71524
6.80565
6.89607
6.98646
7.07678
7.16697
7.25699
7.34681
7.43641
7.52581
7.61505
7.70418
7.79325
7.88229
7.97131
8.06029
8.14923
8.2381
8.32694
8.41581
8.50482
8.59411
8.68382
8.77397
8.86436
8.9548
0.0451547
0.135481
0.225788
0.31592
0.405714
0.495185
0.58445
0.673607
0.762738
0.851899
0.941103
1.03034
1.11961
1.20889
1.2982
1.38755
1.47698
1.56653
1.65622
1.74608
1.83609
1.92623
2.01646
2.10675
2.19706
2.28737
2.37768
2.46799
2.5583
2.64862
2.73893
2.82924
2.91955
3.00986
3.10017
3.19048
3.2808
3.37111
3.46142
3.55173
3.64204
3.73235
3.82267
3.91298
4.00329
4.0936
4.18391
4.27422
4.36453
4.45485
4.54516
4.63547
4.72578
4.81609
4.9064
4.99672
5.08703
5.17734
5.26765
5.35796
5.44827
5.53858
5.6289
5.71921
5.80952
5.89983
5.99014
6.08045
6.17077
6.26108
6.35139
6.4417
6.53201
6.62232
6.71263
6.80295
6.89326
6.98354
7.07377
7.16391
7.25392
7.34378
7.43348
7.52303
7.61246
7.70181
7.79111
7.88039
7.96966
8.0589
8.14811
8.23727
8.3264
8.41555
8.50482
8.59429
8.68408
8.77422
8.86452
8.95485
0.0451097
0.135348
0.22558
0.315693
0.405559
0.495189
0.584668
0.674069
0.763449
0.85285
0.942283
1.03174
1.12122
1.21071
1.30021
1.38975
1.47934
1.56901
1.65879
1.74869
1.83869
1.92878
2.01894
2.10913
2.19935
2.28958
2.3798
2.47002
2.56024
2.65046
2.74068
2.8309
2.92113
3.01135
3.10157
3.19179
3.28201
3.37223
3.46245
3.55268
3.6429
3.73312
3.82334
3.91356
4.00378
4.09401
4.18423
4.27445
4.36467
4.45489
4.54511
4.63533
4.72556
4.81578
4.906
4.99622
5.08644
5.17666
5.26688
5.35711
5.44733
5.53755
5.62777
5.71799
5.80821
5.89843
5.98866
6.07888
6.1691
6.25932
6.34954
6.43976
6.52998
6.62021
6.71043
6.80065
6.89087
6.98107
7.07122
7.16132
7.25132
7.34121
7.43099
7.52067
7.61026
7.69979
7.7893
7.87879
7.96826
8.05772
8.14715
8.23655
8.32593
8.41534
8.50481
8.59444
8.68431
8.77442
8.86466
8.95489
0.0450715
0.135234
0.225403
0.3155
0.405428
0.495192
0.584854
0.674461
0.764053
0.853657
0.943283
1.03293
1.12258
1.21224
1.30192
1.39161
1.48134
1.57112
1.66097
1.7509
1.84089
1.93094
2.02104
2.11116
2.2013
2.29145
2.38159
2.47174
2.56188
2.65203
2.74217
2.83232
2.92246
3.01261
3.10275
3.1929
3.28304
3.37319
3.46333
3.55348
3.64362
3.73377
3.82391
3.91406
4.0042
4.09435
4.18449
4.27464
4.36478
4.45493
4.54507
4.63522
4.72536
4.81551
4.90565
4.9958
5.08594
5.17609
5.26623
5.35638
5.44653
5.53667
5.62682
5.71696
5.80711
5.89725
5.9874
6.07754
6.16769
6.25783
6.34798
6.43812
6.52827
6.61841
6.70856
6.7987
6.88885
6.97897
7.06906
7.15911
7.24911
7.33903
7.42888
7.51866
7.60839
7.69809
7.78776
7.87742
7.96708
8.05672
8.14635
8.23595
8.32554
8.41515
8.50481
8.59458
8.6845
8.7746
8.86477
8.95493
0.0450391
0.135138
0.225254
0.315336
0.405317
0.495195
0.585011
0.674793
0.764564
0.854342
0.944132
1.03393
1.12374
1.21355
1.30337
1.39319
1.48304
1.57291
1.66282
1.75277
1.84276
1.93278
2.02282
2.11288
2.20296
2.29304
2.38312
2.4732
2.56328
2.65336
2.74344
2.83352
2.9236
3.01368
3.10376
3.19384
3.28392
3.374
3.46408
3.55416
3.64424
3.73432
3.8244
3.91448
4.00456
4.09464
4.18472
4.2748
4.36488
4.45496
4.54504
4.63512
4.7252
4.81528
4.90536
4.99544
5.08552
5.1756
5.26568
5.35576
5.44584
5.53592
5.62601
5.71609
5.80617
5.89625
5.98633
6.07641
6.16649
6.25657
6.34665
6.43673
6.52681
6.61689
6.70697
6.79705
6.88713
6.97719
7.06723
7.15725
7.24723
7.33718
7.42709
7.51696
7.60681
7.69664
7.78645
7.87627
7.96607
8.05587
8.14566
8.23544
8.32521
8.41499
8.50481
8.59469
8.68467
8.77475
8.86487
8.95496
0.0450116
0.135056
0.225127
0.315197
0.405222
0.495198
0.585144
0.675075
0.764999
0.854923
0.944852
1.03478
1.12472
1.21466
1.3046
1.39454
1.48448
1.57443
1.66439
1.75436
1.84434
1.93433
2.02433
2.11433
2.20436
2.29438
2.38441
2.47443
2.56446
2.65448
2.74451
2.83453
2.92456
3.01458
3.10461
3.19464
3.28466
3.37469
3.46471
3.55474
3.64476
3.73479
3.82481
3.91484
4.00486
4.09489
4.18491
4.27494
4.36496
4.45499
4.54501
4.63504
4.72506
4.81509
4.90512
4.99514
5.08517
5.17519
5.26522
5.35524
5.44527
5.53529
5.62532
5.71534
5.80537
5.89539
5.98542
6.07544
6.16547
6.25549
6.34552
6.43555
6.52557
6.6156
6.70562
6.79565
6.88567
6.97568
7.06567
7.15566
7.24564
7.33561
7.42557
7.51552
7.60547
7.69541
7.78535
7.87528
7.96522
8.05515
8.14508
8.235
8.32493
8.41486
8.50481
8.59478
8.68481
8.77488
8.86495
8.95499
)
;

boundaryField
{
    bottomWall
    {
        type            calculated;
        value           nonuniform List<scalar> 
100
(
0.048045
0.144048
0.239062
0.330374
0.415459
0.494727
0.570223
0.643769
0.716898
0.790644
0.865238
0.940506
1.01626
1.09232
1.16881
1.24626
1.32534
1.40677
1.49119
1.5788
1.66945
1.76265
1.85768
1.95358
2.04967
2.14576
2.24186
2.33795
2.43404
2.53013
2.62622
2.72231
2.8184
2.91449
3.01059
3.10668
3.20277
3.29886
3.39495
3.49104
3.58713
3.68322
3.77932
3.87541
3.9715
4.06759
4.16368
4.25977
4.35587
4.45196
4.54805
4.64414
4.74023
4.83632
4.93241
5.0285
5.1246
5.22069
5.31678
5.41287
5.50896
5.60505
5.70114
5.79723
5.89333
5.98942
6.08551
6.1816
6.27769
6.37378
6.46987
6.56596
6.66206
6.75815
6.85424
6.95033
7.04642
7.14233
7.23736
7.33056
7.4212
7.50882
7.59323
7.67466
7.75375
7.83119
7.90769
7.98375
8.0595
8.13476
8.20936
8.28311
8.35623
8.42978
8.50527
8.58455
8.66963
8.76094
8.85596
8.95196
)
;
    }
    defaultFaces
    {
        type            empty;
    }
    inlet
    {
        type            cyclic;
    }
    outlet
    {
        type            cyclic;
    }
    topWall
    {
        type            calculated;
        value           nonuniform List<scalar> 
100
(
0.045
0.135
0.225
0.315
0.405
0.495
0.585
0.675
0.765
0.855
0.945
1.035
1.125
1.215
1.305
1.395
1.485
1.575
1.665
1.755
1.845
1.935
2.025
2.115
2.205
2.295
2.385
2.475
2.565
2.655
2.745
2.835
2.925
3.015
3.105
3.195
3.285
3.375
3.465
3.555
3.645
3.735
3.825
3.915
4.005
4.095
4.185
4.275
4.365
4.455
4.545
4.635
4.725
4.815
4.905
4.995
5.085
5.175
5.265
5.355
5.445
5.535
5.625
5.715
5.805
5.895
5.985
6.075
6.165
6.255
6.345
6.435
6.525
6.615
6.705
6.795
6.885
6.975
7.065
7.155
7.245
7.335
7.425
7.515
7.605
7.695
7.785
7.875
7.965
8.055
8.145
8.235
8.325
8.415
8.505
8.595
8.685
8.775
8.865
8.955
)
;
    }
}


// ************************************************************************* //
