/*--------------------------------*- C++ -*----------------------------------*\
| =========                 |                                                 |
| \\      /  F ield         | OpenFOAM: The Open Source CFD Toolbox           |
|  \\    /   O peration     | Version:  v1912                                 |
|   \\  /    A nd           | Website:  www.openfoam.com                      |
|    \\/     M anipulation  |                                                 |
\*---------------------------------------------------------------------------*/
FoamFile
{
    version     2.0;
    format      ascii;
    class       volScalarField;
    location    "0";
    object      Cy;
}
// * * * * * * * * * * * * * * * * * * * * * * * * * * * * * * * * * * * * * //

dimensions      [0 1 0 0 0 0 0];


internalField   nonuniform List<scalar> 
3000
(
1.00857
1.00618
0.994338
0.966572
0.922933
0.869032
0.809861
0.748271
0.686201
0.624869
0.564559
0.505084
0.446214
0.387741
0.329834
0.273212
0.218898
0.1682
0.122661
0.0836521
0.052298
0.0296916
0.0167963
0.0127291
0.0125755
0.0125755
0.0125755
0.0125755
0.0125755
0.0125755
0.0125755
0.0125755
0.0125755
0.0125755
0.0125755
0.0125755
0.0125755
0.0125755
0.0125755
0.0125755
0.0125755
0.0125755
0.0125755
0.0125755
0.0125755
0.0125755
0.0125755
0.0125755
0.0125755
0.0125755
0.0125755
0.0125755
0.0125755
0.0125755
0.0125755
0.0125755
0.0125755
0.0125755
0.0125755
0.0125755
0.0125755
0.0125755
0.0125755
0.0125755
0.0125755
0.0125755
0.0125755
0.0125755
0.0125755
0.0125755
0.0125755
0.0125755
0.0125755
0.0125755
0.0125755
0.0125755
0.0127293
0.0167956
0.0296907
0.0522989
0.0836552
0.122662
0.168201
0.218901
0.273212
0.329832
0.38774
0.446213
0.505086
0.564563
0.624867
0.6862
0.74827
0.809862
0.869035
0.922932
0.966571
0.994338
1.00618
1.00857
1.02694
1.02458
1.01284
0.985326
0.942083
0.888672
0.830037
0.769006
0.707499
0.646723
0.586959
0.528023
0.469687
0.411743
0.354361
0.298252
0.24443
0.194191
0.149065
0.110409
0.0793393
0.0569377
0.0441591
0.0401288
0.0399766
0.0399766
0.0399766
0.0399766
0.0399766
0.0399766
0.0399766
0.0399766
0.0399766
0.0399766
0.0399766
0.0399766
0.0399766
0.0399766
0.0399766
0.0399766
0.0399766
0.0399766
0.0399766
0.0399766
0.0399766
0.0399766
0.0399766
0.0399766
0.0399766
0.0399766
0.0399766
0.0399766
0.0399766
0.0399766
0.0399766
0.0399766
0.0399766
0.0399766
0.0399766
0.0399766
0.0399766
0.0399766
0.0399766
0.0399766
0.0399766
0.0399766
0.0399766
0.0399766
0.0399766
0.0399766
0.0399766
0.0399766
0.0399766
0.0399766
0.0399766
0.0399766
0.040129
0.0441585
0.0569368
0.0793401
0.110412
0.149066
0.194192
0.244433
0.298252
0.354359
0.411742
0.469685
0.528025
0.586963
0.64672
0.707497
0.769005
0.830038
0.888675
0.942082
0.985325
1.01284
1.02458
1.02694
1.0486
1.04626
1.03465
1.00743
0.964658
0.911823
0.853821
0.793447
0.732603
0.672482
0.613363
0.555063
0.497355
0.440036
0.383273
0.327768
0.274527
0.224829
0.180189
0.14195
0.111215
0.0890544
0.0764135
0.0724267
0.0722761
0.0722761
0.0722761
0.0722761
0.0722761
0.0722761
0.0722761
0.0722761
0.0722761
0.0722761
0.0722761
0.0722761
0.0722761
0.0722761
0.0722761
0.0722761
0.0722761
0.0722761
0.0722761
0.0722761
0.0722761
0.0722761
0.0722761
0.0722761
0.0722761
0.0722761
0.0722761
0.0722761
0.0722761
0.0722761
0.0722761
0.0722761
0.0722761
0.0722761
0.0722761
0.0722761
0.0722761
0.0722761
0.0722761
0.0722761
0.0722761
0.0722761
0.0722761
0.0722761
0.0722761
0.0722761
0.0722761
0.0722761
0.0722761
0.0722761
0.0722761
0.0722761
0.0724269
0.0764129
0.0890535
0.111215
0.141953
0.18019
0.22483
0.274529
0.327768
0.383271
0.440035
0.497354
0.555064
0.613367
0.67248
0.732602
0.793447
0.853822
0.911826
0.964657
1.00743
1.03465
1.04626
1.0486
1.07413
1.07182
1.06036
1.03349
0.991268
0.939113
0.881856
0.822259
0.762196
0.702848
0.644487
0.586936
0.52997
0.473387
0.417353
0.362562
0.310004
0.260944
0.216877
0.179129
0.148788
0.126912
0.114434
0.110498
0.11035
0.11035
0.11035
0.11035
0.11035
0.11035
0.11035
0.11035
0.11035
0.11035
0.11035
0.11035
0.11035
0.11035
0.11035
0.11035
0.11035
0.11035
0.11035
0.11035
0.11035
0.11035
0.11035
0.11035
0.11035
0.11035
0.11035
0.11035
0.11035
0.11035
0.11035
0.11035
0.11035
0.11035
0.11035
0.11035
0.11035
0.11035
0.11035
0.11035
0.11035
0.11035
0.11035
0.11035
0.11035
0.11035
0.11035
0.11035
0.11035
0.11035
0.11035
0.11035
0.110498
0.114433
0.126912
0.148789
0.179132
0.216878
0.260945
0.310006
0.362561
0.417351
0.473386
0.529968
0.586938
0.644491
0.702845
0.762195
0.822258
0.881857
0.939116
0.991267
1.03349
1.06036
1.07182
1.07413
1.10423
1.10195
1.09067
1.06421
1.02264
0.971281
0.914904
0.856221
0.79708
0.738642
0.681177
0.624508
0.568415
0.512701
0.457527
0.403575
0.351823
0.303516
0.260124
0.222954
0.193079
0.171538
0.159251
0.155376
0.155229
0.155229
0.155229
0.155229
0.155229
0.155229
0.155229
0.155229
0.155229
0.155229
0.155229
0.155229
0.155229
0.155229
0.155229
0.155229
0.155229
0.155229
0.155229
0.155229
0.155229
0.155229
0.155229
0.155229
0.155229
0.155229
0.155229
0.155229
0.155229
0.155229
0.155229
0.155229
0.155229
0.155229
0.155229
0.155229
0.155229
0.155229
0.155229
0.155229
0.155229
0.155229
0.155229
0.155229
0.155229
0.155229
0.155229
0.155229
0.155229
0.155229
0.155229
0.155229
0.155376
0.15925
0.171537
0.193079
0.222957
0.260125
0.303516
0.351825
0.403575
0.457524
0.5127
0.568414
0.62451
0.68118
0.738639
0.797079
0.856221
0.914905
0.971284
1.02263
1.06421
1.09067
1.10195
1.10423
1.1397
1.13746
1.12639
1.10042
1.05961
1.0092
0.95386
0.896256
0.838201
0.780835
0.724425
0.668797
0.613734
0.559043
0.504882
0.451921
0.401119
0.353698
0.311102
0.274614
0.245287
0.224141
0.21208
0.208275
0.208132
0.208132
0.208132
0.208132
0.208132
0.208132
0.208132
0.208132
0.208132
0.208132
0.208132
0.208132
0.208132
0.208132
0.208132
0.208132
0.208132
0.208132
0.208132
0.208132
0.208132
0.208132
0.208132
0.208132
0.208132
0.208132
0.208132
0.208132
0.208132
0.208132
0.208132
0.208132
0.208132
0.208132
0.208132
0.208132
0.208132
0.208132
0.208132
0.208132
0.208132
0.208132
0.208132
0.208132
0.208132
0.208132
0.208132
0.208132
0.208132
0.208132
0.208132
0.208132
0.208276
0.212079
0.22414
0.245287
0.274617
0.311103
0.353698
0.401121
0.451921
0.50488
0.559042
0.613733
0.668799
0.724429
0.780832
0.838199
0.896255
0.953861
1.0092
1.05961
1.10042
1.12639
1.13746
1.1397
1.18151
1.17933
1.1685
1.1431
1.1032
1.0539
0.999781
0.943448
0.886673
0.830572
0.775406
0.721004
0.667156
0.61367
0.560703
0.50891
0.459227
0.412851
0.371194
0.335509
0.306827
0.286148
0.274352
0.270632
0.270491
0.270491
0.270491
0.270491
0.270491
0.270491
0.270491
0.270491
0.270491
0.270491
0.270491
0.270491
0.270491
0.270491
0.270491
0.270491
0.270491
0.270491
0.270491
0.270491
0.270491
0.270491
0.270491
0.270491
0.270491
0.270491
0.270491
0.270491
0.270491
0.270491
0.270491
0.270491
0.270491
0.270491
0.270491
0.270491
0.270491
0.270491
0.270491
0.270491
0.270491
0.270491
0.270491
0.270491
0.270491
0.270491
0.270491
0.270491
0.270491
0.270491
0.270491
0.270491
0.270632
0.274351
0.286147
0.306828
0.335512
0.371195
0.412852
0.45923
0.50891
0.560701
0.613669
0.667155
0.721006
0.775409
0.830569
0.886671
0.943447
0.999782
1.0539
1.1032
1.1431
1.1685
1.17933
1.18151
1.2308
1.22868
1.21813
1.19342
1.15457
1.10659
1.05391
0.999077
0.943811
0.889201
0.835501
0.782545
0.730128
0.678064
0.626505
0.576087
0.527724
0.482579
0.442028
0.40729
0.37937
0.359239
0.347756
0.344135
0.343998
0.343998
0.343998
0.343998
0.343998
0.343998
0.343998
0.343998
0.343998
0.343998
0.343998
0.343998
0.343998
0.343998
0.343998
0.343998
0.343998
0.343998
0.343998
0.343998
0.343998
0.343998
0.343998
0.343998
0.343998
0.343998
0.343998
0.343998
0.343998
0.343998
0.343998
0.343998
0.343998
0.343998
0.343998
0.343998
0.343998
0.343998
0.343998
0.343998
0.343998
0.343998
0.343998
0.343998
0.343998
0.343998
0.343998
0.343998
0.343998
0.343998
0.343998
0.343998
0.344135
0.347756
0.359238
0.379371
0.407293
0.442029
0.48258
0.527727
0.576087
0.626503
0.678063
0.730127
0.782547
0.835504
0.889198
0.94381
0.999077
1.05391
1.10659
1.15457
1.19342
1.21813
1.22868
1.2308
1.2889
1.28684
1.27664
1.25273
1.21514
1.1687
1.11772
1.06465
1.01117
0.958313
0.90634
0.855089
0.804359
0.753971
0.704071
0.655275
0.608467
0.564773
0.525525
0.491903
0.46488
0.445396
0.434282
0.430778
0.430645
0.430645
0.430645
0.430645
0.430645
0.430645
0.430645
0.430645
0.430645
0.430645
0.430645
0.430645
0.430645
0.430645
0.430645
0.430645
0.430645
0.430645
0.430645
0.430645
0.430645
0.430645
0.430645
0.430645
0.430645
0.430645
0.430645
0.430645
0.430645
0.430645
0.430645
0.430645
0.430645
0.430645
0.430645
0.430645
0.430645
0.430645
0.430645
0.430645
0.430645
0.430645
0.430645
0.430645
0.430645
0.430645
0.430645
0.430645
0.430645
0.430645
0.430645
0.430645
0.430778
0.434282
0.445395
0.464881
0.491906
0.525526
0.564774
0.608469
0.655275
0.704069
0.75397
0.804358
0.85509
0.906344
0.95831
1.01116
1.06465
1.11772
1.16871
1.21514
1.25273
1.27664
1.28685
1.2889
1.35739
1.35541
1.34561
1.32264
1.28653
1.24192
1.19294
1.14195
1.09056
1.03978
0.989846
0.940603
0.891861
0.843449
0.795504
0.748621
0.703646
0.661662
0.623949
0.591643
0.565676
0.546954
0.536275
0.532908
0.532781
0.532781
0.532781
0.532781
0.532781
0.532781
0.532781
0.532781
0.532781
0.532781
0.532781
0.532781
0.532781
0.532781
0.532781
0.532781
0.532781
0.532781
0.532781
0.532781
0.532781
0.532781
0.532781
0.532781
0.532781
0.532781
0.532781
0.532781
0.532781
0.532781
0.532781
0.532781
0.532781
0.532781
0.532781
0.532781
0.532781
0.532781
0.532781
0.532781
0.532781
0.532781
0.532781
0.532781
0.532781
0.532781
0.532781
0.532781
0.532781
0.532781
0.532781
0.532781
0.532908
0.536275
0.546953
0.565677
0.591645
0.62395
0.661662
0.703648
0.74862
0.795503
0.843448
0.89186
0.940604
0.989849
1.03978
1.09056
1.14195
1.19294
1.24192
1.28653
1.32264
1.34561
1.35541
1.35739
1.43812
1.43624
1.42691
1.40505
1.37068
1.32823
1.28161
1.23308
1.18416
1.13582
1.08828
1.04141
0.995009
0.948925
0.903286
0.858655
0.81584
0.775872
0.739968
0.709212
0.68449
0.666667
0.6565
0.653295
0.653174
0.653174
0.653174
0.653174
0.653174
0.653174
0.653174
0.653174
0.653174
0.653174
0.653174
0.653174
0.653174
0.653174
0.653174
0.653174
0.653174
0.653174
0.653174
0.653174
0.653174
0.653174
0.653174
0.653174
0.653174
0.653174
0.653174
0.653174
0.653174
0.653174
0.653174
0.653174
0.653174
0.653174
0.653174
0.653174
0.653174
0.653174
0.653174
0.653174
0.653174
0.653174
0.653174
0.653174
0.653174
0.653174
0.653174
0.653174
0.653174
0.653174
0.653174
0.653174
0.653295
0.6565
0.666666
0.684491
0.709214
0.739969
0.775872
0.815842
0.858655
0.903284
0.948924
0.995008
1.04141
1.08828
1.13581
1.18416
1.23308
1.28161
1.32823
1.37068
1.40505
1.42691
1.43624
1.43812
1.53328
1.53151
1.52274
1.50219
1.46988
1.42997
1.38613
1.34049
1.29449
1.24902
1.20432
1.16023
1.1166
1.07326
1.03034
0.988362
0.948094
0.9105
0.876729
0.847798
0.824544
0.807778
0.798216
0.795202
0.795088
0.795088
0.795088
0.795088
0.795088
0.795088
0.795088
0.795088
0.795088
0.795088
0.795088
0.795088
0.795088
0.795088
0.795088
0.795088
0.795088
0.795088
0.795088
0.795088
0.795088
0.795088
0.795088
0.795088
0.795088
0.795088
0.795088
0.795088
0.795088
0.795088
0.795088
0.795088
0.795088
0.795088
0.795088
0.795088
0.795088
0.795088
0.795088
0.795088
0.795088
0.795088
0.795088
0.795088
0.795088
0.795088
0.795088
0.795088
0.795088
0.795088
0.795088
0.795088
0.795202
0.798215
0.807778
0.824545
0.8478
0.876729
0.910501
0.948096
0.988362
1.03034
1.07326
1.1166
1.16024
1.20432
1.24902
1.29449
1.34049
1.38613
1.42997
1.46988
1.50219
1.52274
1.53151
1.53328
1.64545
1.64381
1.6357
1.6167
1.58682
1.5499
1.50934
1.46712
1.42454
1.38247
1.3411
1.30031
1.25993
1.21983
1.18011
1.14126
1.10399
1.0692
1.03794
1.01116
0.989633
0.974114
0.965263
0.962474
0.962369
0.962369
0.962369
0.962369
0.962369
0.962369
0.962369
0.962369
0.962369
0.962369
0.962369
0.962369
0.962369
0.962369
0.962369
0.962369
0.962369
0.962369
0.962369
0.962369
0.962369
0.962369
0.962369
0.962369
0.962369
0.962369
0.962369
0.962369
0.962369
0.962369
0.962369
0.962369
0.962369
0.962369
0.962369
0.962369
0.962369
0.962369
0.962369
0.962369
0.962369
0.962369
0.962369
0.962369
0.962369
0.962369
0.962369
0.962369
0.962369
0.962369
0.962369
0.962369
0.962474
0.965263
0.974114
0.989634
1.01116
1.03794
1.0692
1.10399
1.14126
1.1801
1.21982
1.25993
1.30031
1.34111
1.38247
1.42454
1.46712
1.50934
1.5499
1.58682
1.61669
1.6357
1.64381
1.64545
1.77767
1.77619
1.76885
1.75167
1.72467
1.69127
1.65459
1.61638
1.57786
1.53978
1.50235
1.46543
1.42889
1.3926
1.35665
1.3215
1.28777
1.25627
1.22797
1.20372
1.18423
1.17018
1.16217
1.15965
1.15955
1.15955
1.15955
1.15955
1.15955
1.15955
1.15955
1.15955
1.15955
1.15955
1.15955
1.15955
1.15955
1.15955
1.15955
1.15955
1.15955
1.15955
1.15955
1.15955
1.15955
1.15955
1.15955
1.15955
1.15955
1.15955
1.15955
1.15955
1.15955
1.15955
1.15955
1.15955
1.15955
1.15955
1.15955
1.15955
1.15955
1.15955
1.15955
1.15955
1.15955
1.15955
1.15955
1.15955
1.15955
1.15955
1.15955
1.15955
1.15955
1.15955
1.15955
1.15955
1.15965
1.16217
1.17018
1.18423
1.20372
1.22797
1.25627
1.28777
1.3215
1.35665
1.3926
1.42889
1.46543
1.50235
1.53978
1.57786
1.61638
1.65459
1.69128
1.72467
1.75167
1.76885
1.77619
1.77767
1.93352
1.93222
1.92581
1.91078
1.88716
1.85793
1.82581
1.79234
1.75859
1.72523
1.69242
1.66008
1.62806
1.59627
1.56477
1.53396
1.5044
1.47678
1.45197
1.43071
1.41362
1.4013
1.39427
1.39206
1.39198
1.39198
1.39198
1.39198
1.39198
1.39198
1.39198
1.39198
1.39198
1.39198
1.39198
1.39198
1.39198
1.39198
1.39198
1.39198
1.39198
1.39198
1.39198
1.39198
1.39198
1.39198
1.39198
1.39198
1.39198
1.39198
1.39198
1.39198
1.39198
1.39198
1.39198
1.39198
1.39198
1.39198
1.39198
1.39198
1.39198
1.39198
1.39198
1.39198
1.39198
1.39198
1.39198
1.39198
1.39198
1.39198
1.39198
1.39198
1.39198
1.39198
1.39198
1.39198
1.39206
1.39427
1.4013
1.41362
1.43071
1.45197
1.47678
1.5044
1.53396
1.56477
1.59626
1.62806
1.66008
1.69242
1.72523
1.75859
1.79234
1.82581
1.85793
1.88716
1.91078
1.92581
1.93222
1.93352
2.10218
2.10108
2.09565
2.08294
2.06295
2.0382
2.011
1.98266
1.95407
1.92581
1.89803
1.87063
1.84351
1.81658
1.7899
1.76381
1.73876
1.71537
1.69434
1.67633
1.66185
1.65141
1.64545
1.64358
1.64351
1.64351
1.64351
1.64351
1.64351
1.64351
1.64351
1.64351
1.64351
1.64351
1.64351
1.64351
1.64351
1.64351
1.64351
1.64351
1.64351
1.64351
1.64351
1.64351
1.64351
1.64351
1.64351
1.64351
1.64351
1.64351
1.64351
1.64351
1.64351
1.64351
1.64351
1.64351
1.64351
1.64351
1.64351
1.64351
1.64351
1.64351
1.64351
1.64351
1.64351
1.64351
1.64351
1.64351
1.64351
1.64351
1.64351
1.64351
1.64351
1.64351
1.64351
1.64351
1.64358
1.64545
1.6514
1.66185
1.67633
1.69434
1.71537
1.73876
1.76381
1.7899
1.81658
1.84351
1.87063
1.89803
1.92581
1.95407
1.98266
2.011
2.0382
2.06295
2.08294
2.09565
2.10108
2.10218
2.25808
2.25716
2.25264
2.24204
2.22537
2.20475
2.18209
2.15847
2.13466
2.11112
2.08798
2.06516
2.04257
2.02014
1.99791
1.97618
1.95532
1.93584
1.91833
1.90333
1.89127
1.88258
1.87762
1.87606
1.876
1.876
1.876
1.876
1.876
1.876
1.876
1.876
1.876
1.876
1.876
1.876
1.876
1.876
1.876
1.876
1.876
1.876
1.876
1.876
1.876
1.876
1.876
1.876
1.876
1.876
1.876
1.876
1.876
1.876
1.876
1.876
1.876
1.876
1.876
1.876
1.876
1.876
1.876
1.876
1.876
1.876
1.876
1.876
1.876
1.876
1.876
1.876
1.876
1.876
1.876
1.876
1.87606
1.87762
1.88258
1.89127
1.90333
1.91833
1.93584
1.95532
1.97618
1.99791
2.02014
2.04257
2.06516
2.08798
2.11112
2.13466
2.15847
2.18209
2.20475
2.22537
2.24204
2.25264
2.25716
2.25808
2.39033
2.38957
2.38581
2.37701
2.36317
2.34605
2.32723
2.30764
2.28787
2.26834
2.24913
2.23019
2.21144
2.19283
2.17439
2.15635
2.13904
2.12287
2.10835
2.0959
2.0859
2.07868
2.07457
2.07328
2.07323
2.07323
2.07323
2.07323
2.07323
2.07323
2.07323
2.07323
2.07323
2.07323
2.07323
2.07323
2.07323
2.07323
2.07323
2.07323
2.07323
2.07323
2.07323
2.07323
2.07323
2.07323
2.07323
2.07323
2.07323
2.07323
2.07323
2.07323
2.07323
2.07323
2.07323
2.07323
2.07323
2.07323
2.07323
2.07323
2.07323
2.07323
2.07323
2.07323
2.07323
2.07323
2.07323
2.07323
2.07323
2.07323
2.07323
2.07323
2.07323
2.07323
2.07323
2.07323
2.07328
2.07457
2.07868
2.0859
2.0959
2.10835
2.12287
2.13904
2.15635
2.17439
2.19283
2.21144
2.23019
2.24913
2.26834
2.28787
2.30763
2.32723
2.34605
2.36317
2.37701
2.38581
2.38957
2.39033
2.50252
2.50189
2.49878
2.49151
2.48007
2.46592
2.45037
2.43418
2.41785
2.40172
2.38585
2.3702
2.35472
2.33933
2.3241
2.3092
2.2949
2.28155
2.26955
2.25927
2.25101
2.24505
2.24165
2.24058
2.24054
2.24054
2.24054
2.24054
2.24054
2.24054
2.24054
2.24054
2.24054
2.24054
2.24054
2.24054
2.24054
2.24054
2.24054
2.24054
2.24054
2.24054
2.24054
2.24054
2.24054
2.24054
2.24054
2.24054
2.24054
2.24054
2.24054
2.24054
2.24054
2.24054
2.24054
2.24054
2.24054
2.24054
2.24054
2.24054
2.24054
2.24054
2.24054
2.24054
2.24054
2.24054
2.24054
2.24054
2.24054
2.24054
2.24054
2.24054
2.24054
2.24054
2.24054
2.24054
2.24058
2.24165
2.24505
2.25101
2.25927
2.26955
2.28155
2.2949
2.3092
2.3241
2.33933
2.35472
2.3702
2.38585
2.40172
2.41785
2.43418
2.45037
2.46592
2.48007
2.49151
2.49878
2.50189
2.50252
2.59769
2.59718
2.59462
2.58865
2.57924
2.56762
2.55484
2.54154
2.52813
2.51487
2.50184
2.48898
2.47626
2.46363
2.45111
2.43887
2.42713
2.41616
2.4063
2.39786
2.39108
2.38618
2.38339
2.38251
2.38248
2.38248
2.38248
2.38248
2.38248
2.38248
2.38248
2.38248
2.38248
2.38248
2.38248
2.38248
2.38248
2.38248
2.38248
2.38248
2.38248
2.38248
2.38248
2.38248
2.38248
2.38248
2.38248
2.38248
2.38248
2.38248
2.38248
2.38248
2.38248
2.38248
2.38248
2.38248
2.38248
2.38248
2.38248
2.38248
2.38248
2.38248
2.38248
2.38248
2.38248
2.38248
2.38248
2.38248
2.38248
2.38248
2.38248
2.38248
2.38248
2.38248
2.38248
2.38248
2.38251
2.38339
2.38618
2.39108
2.39786
2.4063
2.41616
2.42713
2.43887
2.45111
2.46363
2.47626
2.48898
2.50184
2.51487
2.52813
2.54154
2.55485
2.56762
2.57924
2.58865
2.59463
2.59718
2.59769
2.67843
2.67801
2.67593
2.67105
2.66338
2.65389
2.64348
2.63262
2.62168
2.61087
2.60024
2.58975
2.57938
2.56907
2.55886
2.54888
2.5393
2.53036
2.52232
2.51543
2.5099
2.50591
2.50363
2.50292
2.50289
2.50289
2.50289
2.50289
2.50289
2.50289
2.50289
2.50289
2.50289
2.50289
2.50289
2.50289
2.50289
2.50289
2.50289
2.50289
2.50289
2.50289
2.50289
2.50289
2.50289
2.50289
2.50289
2.50289
2.50289
2.50289
2.50289
2.50289
2.50289
2.50289
2.50289
2.50289
2.50289
2.50289
2.50289
2.50289
2.50289
2.50289
2.50289
2.50289
2.50289
2.50289
2.50289
2.50289
2.50289
2.50289
2.50289
2.50289
2.50289
2.50289
2.50289
2.50289
2.50292
2.50363
2.50591
2.5099
2.51544
2.52232
2.53036
2.5393
2.54888
2.55886
2.56907
2.57938
2.58976
2.60024
2.61087
2.62168
2.63262
2.64348
2.6539
2.66338
2.67105
2.67593
2.67801
2.67843
2.74693
2.74659
2.7449
2.74096
2.73476
2.72709
2.71867
2.7099
2.70105
2.69231
2.68372
2.67524
2.66686
2.65853
2.65028
2.64221
2.63446
2.62724
2.62074
2.61518
2.6107
2.60748
2.60564
2.60506
2.60504
2.60504
2.60504
2.60504
2.60504
2.60504
2.60504
2.60504
2.60504
2.60504
2.60504
2.60504
2.60504
2.60504
2.60504
2.60504
2.60504
2.60504
2.60504
2.60504
2.60504
2.60504
2.60504
2.60504
2.60504
2.60504
2.60504
2.60504
2.60504
2.60504
2.60504
2.60504
2.60504
2.60504
2.60504
2.60504
2.60504
2.60504
2.60504
2.60504
2.60504
2.60504
2.60504
2.60504
2.60504
2.60504
2.60504
2.60504
2.60504
2.60504
2.60504
2.60504
2.60506
2.60564
2.60748
2.6107
2.61518
2.62074
2.62724
2.63446
2.64221
2.65028
2.65853
2.66686
2.67525
2.68372
2.69231
2.70105
2.7099
2.71867
2.72709
2.73476
2.74096
2.7449
2.74659
2.74693
2.80503
2.80476
2.80342
2.80027
2.79531
2.78918
2.78246
2.77545
2.76839
2.7614
2.75454
2.74777
2.74107
2.73442
2.72783
2.72138
2.7152
2.70942
2.70424
2.69979
2.69622
2.69364
2.69217
2.69171
2.69169
2.69169
2.69169
2.69169
2.69169
2.69169
2.69169
2.69169
2.69169
2.69169
2.69169
2.69169
2.69169
2.69169
2.69169
2.69169
2.69169
2.69169
2.69169
2.69169
2.69169
2.69169
2.69169
2.69169
2.69169
2.69169
2.69169
2.69169
2.69169
2.69169
2.69169
2.69169
2.69169
2.69169
2.69169
2.69169
2.69169
2.69169
2.69169
2.69169
2.69169
2.69169
2.69169
2.69169
2.69169
2.69169
2.69169
2.69169
2.69169
2.69169
2.69169
2.69169
2.69171
2.69217
2.69364
2.69622
2.69979
2.70424
2.70942
2.7152
2.72138
2.72783
2.73442
2.74107
2.74777
2.75454
2.7614
2.76839
2.77545
2.78246
2.78918
2.79531
2.80027
2.80342
2.80476
2.80503
2.85433
2.85411
2.85306
2.85058
2.84668
2.84186
2.83657
2.83106
2.82551
2.82002
2.81462
2.8093
2.80403
2.7988
2.79362
2.78855
2.78369
2.77915
2.77507
2.77157
2.76877
2.76674
2.76559
2.76522
2.76521
2.76521
2.76521
2.76521
2.76521
2.76521
2.76521
2.76521
2.76521
2.76521
2.76521
2.76521
2.76521
2.76521
2.76521
2.76521
2.76521
2.76521
2.76521
2.76521
2.76521
2.76521
2.76521
2.76521
2.76521
2.76521
2.76521
2.76521
2.76521
2.76521
2.76521
2.76521
2.76521
2.76521
2.76521
2.76521
2.76521
2.76521
2.76521
2.76521
2.76521
2.76521
2.76521
2.76521
2.76521
2.76521
2.76521
2.76521
2.76521
2.76521
2.76521
2.76521
2.76522
2.76559
2.76674
2.76877
2.77157
2.77507
2.77915
2.78369
2.78855
2.79362
2.7988
2.80403
2.8093
2.81462
2.82002
2.82551
2.83106
2.83657
2.84186
2.84668
2.85058
2.85306
2.85411
2.85433
2.89615
2.89598
2.89517
2.89326
2.89026
2.88655
2.88248
2.87824
2.87397
2.86975
2.86559
2.8615
2.85744
2.85342
2.84943
2.84553
2.84179
2.8383
2.83516
2.83247
2.83031
2.82875
2.82786
2.82758
2.82757
2.82757
2.82757
2.82757
2.82757
2.82757
2.82757
2.82757
2.82757
2.82757
2.82757
2.82757
2.82757
2.82757
2.82757
2.82757
2.82757
2.82757
2.82757
2.82757
2.82757
2.82757
2.82757
2.82757
2.82757
2.82757
2.82757
2.82757
2.82757
2.82757
2.82757
2.82757
2.82757
2.82757
2.82757
2.82757
2.82757
2.82757
2.82757
2.82757
2.82757
2.82757
2.82757
2.82757
2.82757
2.82757
2.82757
2.82757
2.82757
2.82757
2.82757
2.82757
2.82758
2.82786
2.82875
2.83031
2.83247
2.83516
2.8383
2.84179
2.84553
2.84943
2.85342
2.85744
2.8615
2.86559
2.86975
2.87397
2.87824
2.88248
2.88655
2.89026
2.89326
2.89517
2.89598
2.89615
2.93162
2.9315
2.93089
2.92947
2.92723
2.92447
2.92143
2.91827
2.91508
2.91193
2.90883
2.90578
2.90276
2.89975
2.89678
2.89387
2.89108
2.88848
2.88614
2.88413
2.88252
2.88136
2.88069
2.88049
2.88048
2.88048
2.88048
2.88048
2.88048
2.88048
2.88048
2.88048
2.88048
2.88048
2.88048
2.88048
2.88048
2.88048
2.88048
2.88048
2.88048
2.88048
2.88048
2.88048
2.88048
2.88048
2.88048
2.88048
2.88048
2.88048
2.88048
2.88048
2.88048
2.88048
2.88048
2.88048
2.88048
2.88048
2.88048
2.88048
2.88048
2.88048
2.88048
2.88048
2.88048
2.88048
2.88048
2.88048
2.88048
2.88048
2.88048
2.88048
2.88048
2.88048
2.88048
2.88048
2.88049
2.88069
2.88136
2.88252
2.88413
2.88614
2.88848
2.89108
2.89387
2.89678
2.89975
2.90276
2.90578
2.90883
2.91193
2.91508
2.91827
2.92143
2.92447
2.92723
2.92947
2.93089
2.9315
2.93162
2.96172
2.96163
2.9612
2.96019
2.9586
2.95663
2.95447
2.95223
2.94996
2.94772
2.94552
2.94335
2.9412
2.93906
2.93695
2.93488
2.9329
2.93105
2.92938
2.92796
2.92681
2.92598
2.92551
2.92537
2.92536
2.92536
2.92536
2.92536
2.92536
2.92536
2.92536
2.92536
2.92536
2.92536
2.92536
2.92536
2.92536
2.92536
2.92536
2.92536
2.92536
2.92536
2.92536
2.92536
2.92536
2.92536
2.92536
2.92536
2.92536
2.92536
2.92536
2.92536
2.92536
2.92536
2.92536
2.92536
2.92536
2.92536
2.92536
2.92536
2.92536
2.92536
2.92536
2.92536
2.92536
2.92536
2.92536
2.92536
2.92536
2.92536
2.92536
2.92536
2.92536
2.92536
2.92536
2.92536
2.92537
2.92551
2.92598
2.92681
2.92796
2.92938
2.93105
2.9329
2.93488
2.93695
2.93906
2.9412
2.94335
2.94552
2.94772
2.94996
2.95223
2.95447
2.95663
2.9586
2.96019
2.9612
2.96163
2.96172
2.98725
2.98719
2.98691
2.98625
2.9852
2.98392
2.9825
2.98103
2.97955
2.97808
2.97664
2.97522
2.97381
2.97241
2.97103
2.96967
2.96837
2.96716
2.96607
2.96514
2.96439
2.96384
2.96354
2.96344
2.96343
2.96343
2.96343
2.96343
2.96343
2.96343
2.96343
2.96343
2.96343
2.96343
2.96343
2.96343
2.96343
2.96343
2.96343
2.96343
2.96343
2.96343
2.96343
2.96343
2.96343
2.96343
2.96343
2.96343
2.96343
2.96343
2.96343
2.96343
2.96343
2.96343
2.96343
2.96343
2.96343
2.96343
2.96343
2.96343
2.96343
2.96343
2.96343
2.96343
2.96343
2.96343
2.96343
2.96343
2.96343
2.96343
2.96343
2.96343
2.96343
2.96343
2.96343
2.96343
2.96344
2.96354
2.96384
2.96439
2.96514
2.96607
2.96716
2.96837
2.96967
2.97103
2.97241
2.97381
2.97522
2.97664
2.97808
2.97955
2.98103
2.9825
2.98392
2.9852
2.98625
2.98691
2.98719
2.98725
3.00891
3.00888
3.00872
3.00835
3.00778
3.00707
3.00628
3.00547
3.00465
3.00384
3.00304
3.00225
3.00147
3.0007
2.99994
2.99919
2.99847
2.9978
2.99719
2.99668
2.99626
2.99596
2.99579
2.99574
2.99574
2.99574
2.99574
2.99574
2.99574
2.99574
2.99574
2.99574
2.99574
2.99574
2.99574
2.99574
2.99574
2.99574
2.99574
2.99574
2.99574
2.99574
2.99574
2.99574
2.99574
2.99574
2.99574
2.99574
2.99574
2.99574
2.99574
2.99574
2.99574
2.99574
2.99574
2.99574
2.99574
2.99574
2.99574
2.99574
2.99574
2.99574
2.99574
2.99574
2.99574
2.99574
2.99574
2.99574
2.99574
2.99574
2.99574
2.99574
2.99574
2.99574
2.99574
2.99574
2.99574
2.99579
2.99596
2.99626
2.99668
2.99719
2.9978
2.99847
2.99919
2.99994
3.0007
3.00147
3.00225
3.00304
3.00384
3.00465
3.00547
3.00628
3.00707
3.00778
3.00835
3.00872
3.00888
3.00891
3.02728
3.02727
3.02722
3.02711
3.02693
3.0267
3.02646
3.0262
3.02594
3.02569
3.02544
3.02519
3.02494
3.0247
3.02446
3.02422
3.024
3.02379
3.0236
3.02343
3.0233
3.02321
3.02316
3.02314
3.02314
3.02314
3.02314
3.02314
3.02314
3.02314
3.02314
3.02314
3.02314
3.02314
3.02314
3.02314
3.02314
3.02314
3.02314
3.02314
3.02314
3.02314
3.02314
3.02314
3.02314
3.02314
3.02314
3.02314
3.02314
3.02314
3.02314
3.02314
3.02314
3.02314
3.02314
3.02314
3.02314
3.02314
3.02314
3.02314
3.02314
3.02314
3.02314
3.02314
3.02314
3.02314
3.02314
3.02314
3.02314
3.02314
3.02314
3.02314
3.02314
3.02314
3.02314
3.02314
3.02314
3.02316
3.02321
3.0233
3.02343
3.0236
3.02379
3.024
3.02422
3.02446
3.0247
3.02494
3.02519
3.02544
3.02569
3.02594
3.0262
3.02646
3.0267
3.02693
3.02711
3.02722
3.02727
3.02728
)
;

boundaryField
{
    bottomWall
    {
        type            calculated;
        value           nonuniform List<scalar> 
100
(
1.00014
0.997739
0.985859
0.958019
0.914253
0.860165
0.800767
0.738925
0.676589
0.61499
0.554418
0.494688
0.435567
0.376845
0.318691
0.261822
0.207269
0.156342
0.110595
0.0714066
0.0399073
0.0171957
0.00423992
0.000154232
0
0
0
0
0
0
0
0
-6.34413e-17
-1.26883e-16
-6.34413e-17
0
0
0
0
0
6.34413e-17
1.26883e-16
6.34413e-17
0
0
0
0
0
0
0
0
0
0
0
0
0
0
0
0
0
0
0
0
0
0
0
0
3.17207e-17
3.17207e-17
0
0
0
0
0
0
0
0.000154396
0.00423922
0.0171948
0.0399082
0.0714097
0.110596
0.156343
0.207271
0.261822
0.318689
0.376844
0.435566
0.49469
0.554422
0.614987
0.676587
0.738924
0.800768
0.860168
0.914252
0.958019
0.98586
0.99774
1.00014
)
;
    }
    defaultFaces
    {
        type            empty;
    }
    inlet
    {
        type            cyclic;
    }
    outlet
    {
        type            cyclic;
    }
    topWall
    {
        type            calculated;
        value           nonuniform List<scalar> 
100
(
3.03572
3.03572
3.03572
3.03572
3.03572
3.03572
3.03572
3.03572
3.03572
3.03572
3.03572
3.03572
3.03572
3.03572
3.03572
3.03572
3.03572
3.03572
3.03572
3.03572
3.03572
3.03572
3.03572
3.03572
3.03572
3.03572
3.03572
3.03572
3.03572
3.03572
3.03572
3.03572
3.03572
3.03572
3.03572
3.03572
3.03572
3.03572
3.03572
3.03572
3.03572
3.03572
3.03572
3.03572
3.03572
3.03572
3.03572
3.03572
3.03572
3.03572
3.03572
3.03572
3.03572
3.03572
3.03572
3.03572
3.03572
3.03572
3.03572
3.03572
3.03572
3.03572
3.03572
3.03572
3.03572
3.03572
3.03572
3.03572
3.03572
3.03572
3.03572
3.03572
3.03572
3.03572
3.03572
3.03572
3.03572
3.03572
3.03572
3.03572
3.03572
3.03572
3.03572
3.03572
3.03572
3.03572
3.03572
3.03572
3.03572
3.03572
3.03572
3.03572
3.03572
3.03572
3.03572
3.03572
3.03572
3.03572
3.03572
3.03572
)
;
    }
}


// ************************************************************************* //
