/*--------------------------------*- C++ -*----------------------------------*\
| =========                 |                                                 |
| \\      /  F ield         | OpenFOAM: The Open Source CFD Toolbox           |
|  \\    /   O peration     | Version:  v1912                                 |
|   \\  /    A nd           | Website:  www.openfoam.com                      |
|    \\/     M anipulation  |                                                 |
\*---------------------------------------------------------------------------*/
FoamFile
{
    version     2.0;
    format      ascii;
    class       volVectorField;
    location    "0";
    object      U;
}
// * * * * * * * * * * * * * * * * * * * * * * * * * * * * * * * * * * * * * //

dimensions      [0 1 -1 0 0 0 0];


internalField   nonuniform List<vector> 
3000
(
(0.00126552 1.26398e-05 -7.44564e-06)
(0.00106527 -1.87437e-05 -5.77645e-06)
(-3.35988e-05 -1.88082e-06 -7.05938e-06)
(-0.000546385 0.000288189 -2.75093e-05)
(-0.000761427 0.000539113 -2.67994e-05)
(-0.000985381 0.000694782 -8.45759e-06)
(-0.000614643 0.000440358 -2.36992e-06)
(-0.000455015 0.000340965 -5.54271e-06)
(-0.000436621 0.000329705 -6.64469e-06)
(-0.000496489 0.00037074 -1.34909e-05)
(-0.000496917 0.000373493 -8.01069e-06)
(-0.000667238 0.000516903 -5.72256e-06)
(-0.00076694 0.000563346 -3.85676e-06)
(-0.000786998 0.000577975 -3.62439e-06)
(-0.000910504 0.000696297 -3.02244e-06)
(-0.00103812 0.000889372 -2.14659e-06)
(-0.00134904 0.000841198 -8.18234e-06)
(-0.00160635 0.000915693 -1.82221e-05)
(-0.00169421 0.000831803 -2.75551e-05)
(-0.00157588 0.000628949 -2.95306e-05)
(-0.00153918 0.000476653 -2.68957e-05)
(-0.00165855 0.00020776 -2.32965e-05)
(-0.00208637 0.000108065 -1.79053e-05)
(-0.00222414 4.33602e-05 -1.33711e-05)
(-0.00262892 2.97408e-05 -1.69205e-05)
(-0.00291657 2.32885e-05 -1.9825e-05)
(-0.00310555 1.5285e-05 -2.68563e-05)
(-0.00321409 9.62306e-06 -3.09704e-05)
(-0.00327086 4.89421e-06 -3.38533e-05)
(-0.0032678 6.57119e-07 -3.64149e-05)
(-0.0032308 -1.97304e-06 -3.66466e-05)
(-0.00315711 -4.77686e-06 -3.60538e-05)
(-0.00298022 -7.65391e-06 -3.29786e-05)
(-0.00284887 -9.00017e-06 -2.84381e-05)
(-0.0027025 -1.10156e-05 -3.60992e-05)
(-0.00253712 -1.18804e-05 -4.54864e-05)
(-0.00236971 -1.13718e-05 -5.39106e-05)
(-0.00221136 -1.21601e-05 -5.80281e-05)
(-0.00203875 -1.10889e-05 -5.58364e-05)
(-0.00187825 -1.29493e-05 -4.63901e-05)
(-0.00170841 -1.17414e-05 -5.11846e-05)
(-0.00155198 -1.11637e-05 -5.87775e-05)
(-0.00139143 -1.18124e-05 -4.78125e-05)
(-0.00122849 -1.03187e-05 -2.53667e-05)
(-0.00108334 -1.09099e-05 -1.43267e-06)
(-0.000932542 -1.1412e-05 1.75517e-05)
(-0.000770773 -1.1767e-05 2.49908e-05)
(-0.000599847 -1.27763e-05 2.17898e-05)
(-0.000440574 -9.9151e-06 2.33135e-05)
(-0.000313013 -9.0073e-06 2.23629e-05)
(-6.32875e-05 -9.11893e-06 1.64248e-05)
(5.98795e-05 -6.79016e-06 1.34334e-05)
(0.000161695 -6.78415e-06 9.19628e-07)
(0.000253038 -6.63829e-06 -1.88717e-05)
(0.000364799 -8.42798e-06 -2.92634e-05)
(0.000489171 -7.89891e-06 -2.31445e-05)
(0.000582696 -6.43233e-06 -2.7807e-05)
(0.000669001 -5.15646e-06 -2.54434e-05)
(0.000748601 -4.90413e-06 -2.60421e-05)
(0.000818405 -5.02297e-06 -2.97628e-05)
(0.000891794 -5.97714e-06 -2.08912e-05)
(0.000979142 -5.98644e-06 -1.84985e-05)
(0.00105664 -4.19887e-06 -2.14013e-05)
(0.00111481 -2.96464e-06 -2.27317e-05)
(0.00115696 -2.73594e-06 -2.45071e-05)
(0.00119368 -2.06871e-06 -2.25678e-05)
(0.00122003 -6.10051e-07 -2.72361e-05)
(0.00122512 6.74706e-07 -2.39024e-05)
(0.00121051 1.70387e-06 -5.38008e-06)
(0.0011981 1.75467e-06 3.92946e-07)
(0.00116998 4.00684e-06 6.39527e-06)
(0.00112162 5.7087e-06 6.26972e-06)
(0.00105014 7.96797e-06 2.076e-06)
(0.000944999 1.15156e-05 1.18673e-05)
(0.000798653 1.43358e-05 1.22202e-05)
(0.000605689 1.87713e-05 1.87507e-06)
(0.000344796 2.71419e-05 -3.45681e-07)
(8.83349e-05 2.62458e-05 -2.55763e-06)
(0.000226899 3.63801e-05 -1.30026e-05)
(0.000399026 9.62293e-05 -1.72328e-05)
(0.00038581 0.000177162 -1.49574e-05)
(0.000552103 0.000267371 -1.83728e-05)
(0.00041266 0.000226976 -9.56891e-06)
(0.000437412 0.000251126 -1.0939e-05)
(0.000347833 0.000219101 -6.44994e-06)
(0.000505479 0.00042992 -1.03115e-05)
(0.000275427 0.000227055 -5.49979e-06)
(0.000415585 0.000295471 -6.72578e-06)
(0.000415316 0.000404136 -7.40933e-06)
(0.0005794 0.000413151 -8.25641e-06)
(0.000691485 0.000529768 -1.22385e-05)
(0.000638167 0.000454011 -6.61979e-06)
(7.62009e-310 7.62051e-310 7.62094e-310)
(7.62136e-310 7.62178e-310 7.62221e-310)
(0.00193603 0.00131726 -1.13571e-05)
(0.00224829 0.00161395 -8.47521e-06)
(0.00319821 0.00111417 -1.16816e-05)
(0.00337733 0.000509803 -1.53176e-05)
(0.00284996 0.000208061 -1.50323e-05)
(0.00166737 5.30935e-05 -1.39299e-05)
(0.00828452 0.000130588 -4.62342e-05)
(0.00695212 -0.000179447 -3.46486e-05)
(0.00522788 -0.000333213 -4.25396e-05)
(0.000834769 0.000253279 -6.91553e-05)
(-0.00152771 0.00115373 -7.77888e-05)
(-0.00192084 0.00135323 -1.78566e-05)
(-0.0017418 0.00126596 -3.79065e-06)
(-0.00141171 0.00110793 -1.37014e-05)
(-0.00137415 0.00109641 -1.65401e-05)
(-0.00133456 0.0010512 -2.92408e-05)
(-0.00151767 0.00122748 -2.27728e-05)
(-0.00175609 0.0014555 -1.46711e-05)
(-0.00213008 0.00168993 -1.30873e-05)
(-0.00219736 0.00173364 -1.31706e-05)
(-0.00251594 0.00197312 -1.45717e-05)
(-0.00288029 0.00220487 -1.03265e-05)
(-0.00322259 0.00217259 -2.68945e-05)
(-0.00344129 0.00205242 -4.55155e-05)
(-0.00363542 0.0017741 -5.64898e-05)
(-0.00377548 0.0014512 -6.13762e-05)
(-0.00391787 0.00112091 -5.67535e-05)
(-0.0039803 0.000743088 -3.86759e-05)
(-0.00420575 0.00036967 -2.70615e-05)
(-0.00492693 0.000233621 -3.40808e-05)
(-0.00532772 0.000145966 -4.21289e-05)
(-0.0055775 0.0001052 -4.92323e-05)
(-0.00599087 6.97388e-05 -6.55722e-05)
(-0.00602493 3.53446e-05 -7.12184e-05)
(-0.00598298 7.35991e-06 -7.91774e-05)
(-0.00588094 -1.35597e-05 -8.10406e-05)
(-0.00573684 -3.11585e-05 -7.88628e-05)
(-0.00554381 -4.68744e-05 -7.92776e-05)
(-0.00513474 -6.28448e-05 -7.79762e-05)
(-0.00484992 -7.11013e-05 -7.44699e-05)
(-0.00454392 -8.03104e-05 -8.91147e-05)
(-0.0042279 -8.26892e-05 -0.000106124)
(-0.00390366 -8.16773e-05 -0.000117452)
(-0.00364398 -0.000100873 -0.000134858)
(-0.00332692 -9.44717e-05 -0.000129887)
(-0.00300928 -0.000101374 -0.000114022)
(-0.00268216 -9.65469e-05 -0.000111426)
(-0.00236294 -9.36365e-05 -0.000113914)
(-0.00203829 -9.7774e-05 -8.02815e-05)
(-0.00171174 -9.20295e-05 -3.26488e-05)
(-0.0014165 -8.76738e-05 1.39752e-05)
(-0.0011223 -9.27182e-05 4.86008e-05)
(-0.000805558 -9.80388e-05 5.48876e-05)
(-0.000483122 -9.78972e-05 4.52547e-05)
(-0.000189541 -8.30654e-05 4.31976e-05)
(9.16653e-05 -7.94727e-05 3.62668e-05)
(0.000560372 -7.66651e-05 3.81333e-05)
(0.000807173 -6.57394e-05 3.56343e-05)
(0.00103287 -6.01032e-05 8.47294e-06)
(0.00124588 -6.13221e-05 -3.08411e-05)
(0.00148183 -7.24473e-05 -5.74518e-05)
(0.00171354 -6.46395e-05 -4.96905e-05)
(0.001922 -5.76935e-05 -5.45752e-05)
(0.00210712 -4.89913e-05 -5.55213e-05)
(0.00226341 -4.54126e-05 -5.25145e-05)
(0.00243227 -4.5287e-05 -4.77575e-05)
(0.00262365 -5.1354e-05 -3.68744e-05)
(0.00280677 -5.0472e-05 -3.07601e-05)
(0.0029742 -4.11847e-05 -4.38284e-05)
(0.00289533 -2.71996e-05 -5.44325e-05)
(0.00301546 -2.37976e-05 -6.14623e-05)
(0.00312199 -1.8583e-05 -5.54604e-05)
(0.00319917 -8.44677e-06 -6.76181e-05)
(0.00324265 9.21681e-07 -5.95083e-05)
(0.00328297 7.08731e-06 -2.03661e-05)
(0.00329088 1.06003e-05 -1.10697e-05)
(0.00327726 2.20062e-05 -3.63003e-06)
(0.00323899 3.42122e-05 2.94961e-06)
(0.00316749 4.85732e-05 5.68197e-06)
(0.00304495 7.46153e-05 2.3021e-05)
(0.00257353 8.25191e-05 2.3498e-05)
(0.00234603 0.000109422 6.9215e-06)
(0.00204331 0.000154034 6.10547e-06)
(0.00162744 0.000161659 -6.70229e-06)
(0.00168341 0.000249086 -3.05957e-05)
(0.00189413 0.00047873 -3.79461e-05)
(0.0018779 0.000681106 -4.85659e-05)
(0.00222943 0.00100254 -5.77217e-05)
(0.00258306 0.00142609 -5.31698e-05)
(0.00293417 0.001802 -5.9642e-05)
(0.0031859 0.00218741 -5.71187e-05)
(0.00362379 0.00293166 -6.32314e-05)
(0.00435518 0.00312126 -6.96302e-05)
(0.00452336 0.00323301 -7.10919e-05)
(0.00501653 0.0041157 -7.29049e-05)
(0.00565328 0.00411453 -8.03848e-05)
(0.00610871 0.00548866 -8.15269e-05)
(0.00720128 0.00549292 -6.68554e-05)
(0.00784716 0.00583453 -6.7334e-05)
(0.0108389 0.00750688 -7.19522e-05)
(0.0142019 0.00969969 -8.59052e-05)
(0.0169838 0.0110919 -7.63373e-05)
(0.019968 0.00648915 -8.02942e-05)
(0.0200511 0.00404385 -8.12049e-05)
(0.0152634 0.0016429 -6.86222e-05)
(0.0105653 0.00056549 -5.88363e-05)
(0.0180176 0.000543211 -0.000112862)
(0.015243 -0.000137423 -9.72217e-05)
(0.0124152 -0.00052311 -8.87616e-05)
(0.00611917 -0.000330214 -0.000100281)
(-0.00017274 0.000852195 -0.000116259)
(-0.00213841 0.0016271 -2.77605e-05)
(-0.00246797 0.00180399 4.35291e-06)
(-0.00229365 0.00181202 -8.13017e-06)
(-0.00225919 0.0018205 -1.18746e-05)
(-0.00224078 0.00185188 -2.84837e-05)
(-0.00248122 0.00207856 -2.54716e-05)
(-0.00275719 0.00232847 -1.63449e-05)
(-0.00310337 0.00257329 -2.00486e-05)
(-0.00317226 0.00261998 -2.2459e-05)
(-0.00334618 0.00270722 -3.05309e-05)
(-0.0036758 0.00283114 -2.67266e-05)
(-0.00399964 0.00277908 -5.12948e-05)
(-0.00422752 0.00255734 -6.89383e-05)
(-0.00447362 0.00222393 -7.48527e-05)
(-0.00470947 0.00184503 -7.73057e-05)
(-0.00493916 0.0014524 -6.88943e-05)
(-0.00515947 0.00102216 -5.27908e-05)
(-0.00563046 0.000657195 -5.3772e-05)
(-0.00601656 0.000400986 -6.34715e-05)
(-0.0063855 0.000263139 -7.40323e-05)
(-0.00654301 0.000173654 -7.56012e-05)
(-0.00664431 9.0136e-05 -8.65371e-05)
(-0.00659374 2.36744e-05 -9.01887e-05)
(-0.00647762 -2.51024e-05 -9.91977e-05)
(-0.00632167 -6.0323e-05 -0.000102005)
(-0.00611299 -0.000106975 -9.97271e-05)
(-0.00587602 -0.000140049 -0.000101148)
(-0.00538592 -0.000177132 -0.000107424)
(-0.00504609 -0.000194428 -0.000104448)
(-0.00468559 -0.000208471 -0.000120608)
(-0.00432024 -0.000215347 -0.000129971)
(-0.00394674 -0.000213527 -0.000139152)
(-0.00357925 -0.000210919 -0.000152448)
(-0.00323464 -0.000200276 -0.000149385)
(-0.00288349 -0.000213845 -0.00013696)
(-0.00252067 -0.000211439 -0.000128041)
(-0.00215688 -0.000210858 -0.000116388)
(-0.00179205 -0.000212536 -6.86419e-05)
(-0.00144496 -0.00019659 -1.5887e-05)
(-0.0011046 -0.000187628 4.35031e-05)
(-0.00077007 -0.000195226 6.06516e-05)
(-0.000416232 -0.000203777 5.90215e-05)
(-7.36545e-05 -0.000196034 4.77106e-05)
(0.000243203 -0.000175205 3.74273e-05)
(0.000564076 -0.000171735 2.87018e-05)
(0.0010796 -0.000161892 4.33346e-05)
(0.00136216 -0.000144761 4.06117e-05)
(0.00162453 -0.000132967 1.38543e-05)
(0.00188638 -0.000137505 -1.53552e-05)
(0.00215405 -0.000153298 -4.63783e-05)
(0.00241855 -0.000139509 -4.66979e-05)
(0.00267041 -0.000128677 -5.02396e-05)
(0.00289761 -0.000111617 -5.42481e-05)
(0.00310917 -0.000107245 -6.27658e-05)
(0.00331102 -0.000107592 -5.18558e-05)
(0.00350615 -0.000109156 -3.43235e-05)
(0.00368957 -0.000106538 -2.08316e-05)
(0.00387139 -9.40678e-05 -3.39772e-05)
(0.0040501 -8.1667e-05 -5.70204e-05)
(0.00421166 -7.02285e-05 -6.25469e-05)
(0.00434628 -5.61514e-05 -6.38093e-05)
(0.00445709 -3.3403e-05 -8.54733e-05)
(0.00454177 -1.37617e-05 -8.37764e-05)
(0.00464386 4.44677e-06 -4.15503e-05)
(0.00448854 1.5752e-05 -2.98491e-05)
(0.00450173 3.61723e-05 -2.79878e-05)
(0.00448577 6.19291e-05 -1.6659e-05)
(0.00443614 9.12104e-05 2.35247e-06)
(0.00435147 0.000140474 8.73718e-06)
(0.00401916 0.000172584 1.04827e-05)
(0.00383562 0.000227396 2.59853e-06)
(0.00342576 0.000290098 4.63602e-06)
(0.00324771 0.000370894 -8.23572e-06)
(0.00297949 0.00047441 -3.38897e-05)
(0.00309367 0.000753767 -3.92431e-05)
(0.00331709 0.0010835 -4.79285e-05)
(0.00339211 0.00143445 -6.05024e-05)
(0.00381663 0.00198966 -6.42528e-05)
(0.0043455 0.00258569 -7.97444e-05)
(0.00504823 0.00332018 -9.79194e-05)
(0.00587107 0.00405443 -0.000112702)
(0.00668668 0.00472027 -0.000118068)
(0.00689348 0.00490258 -0.000119104)
(0.00777263 0.00573851 -0.000121441)
(0.00878765 0.00656994 -0.000125856)
(0.00984481 0.00784508 -0.000117492)
(0.0119953 0.00893788 -0.000110697)
(0.0127835 0.00940501 -0.000114284)
(0.0154488 0.0104515 -0.00011537)
(0.0179702 0.0115569 -0.000125203)
(0.0229394 0.0127979 -0.000128627)
(0.0273031 0.00970673 -0.000140401)
(0.0280343 0.00615183 -0.000147006)
(0.025412 0.00340468 -0.000132481)
(0.0216196 0.00164276 -0.000122212)
(0.0252157 0.0012597 -0.000164637)
(0.022796 0.000277994 -0.000158144)
(0.0198753 -0.000399721 -0.000140286)
(0.0125356 -0.000709304 -0.00012699)
(0.00378686 9.49777e-05 -0.000140878)
(-0.000876959 0.00128562 -5.15384e-05)
(-0.00247453 0.0019259 1.02682e-05)
(-0.00279171 0.00222253 1.37865e-05)
(-0.0028191 0.00227669 1.1913e-05)
(-0.00283669 0.00236501 -1.23949e-05)
(-0.00305773 0.00259577 -1.61269e-05)
(-0.00327521 0.0028162 -1.18579e-05)
(-0.00353672 0.00300553 -2.47794e-05)
(-0.0035923 0.0030405 -2.94874e-05)
(-0.00385405 0.00320059 -5.51221e-05)
(-0.0040544 0.00319526 -5.36094e-05)
(-0.00433215 0.00308923 -8.07682e-05)
(-0.0045692 0.00283604 -9.28876e-05)
(-0.00483461 0.0024789 -9.4351e-05)
(-0.00511753 0.00208742 -9.23373e-05)
(-0.00539526 0.0016695 -8.2512e-05)
(-0.00571741 0.0012512 -7.99633e-05)
(-0.00602636 0.000830346 -8.00121e-05)
(-0.00632233 0.000540376 -8.76521e-05)
(-0.00649331 0.000340763 -0.000106733)
(-0.00656917 0.000199301 -9.14015e-05)
(-0.00648971 6.90837e-05 -8.11361e-05)
(-0.00639767 -2.94525e-05 -0.000100537)
(-0.00625359 -9.46873e-05 -0.000109779)
(-0.00606968 -0.000143796 -0.000113353)
(-0.00575014 -0.000208024 -0.000109256)
(-0.00549356 -0.000253807 -0.000112211)
(-0.00500308 -0.000311922 -0.000114724)
(-0.00466623 -0.000341345 -0.000105834)
(-0.00429801 -0.000357996 -0.00011709)
(-0.00392821 -0.000365045 -0.000126278)
(-0.00356028 -0.000362891 -0.00014071)
(-0.00318807 -0.000356006 -0.000150886)
(-0.00283072 -0.000342471 -0.000152349)
(-0.00246767 -0.000359696 -0.000142271)
(-0.00209318 -0.000360875 -0.000139908)
(-0.00166615 -0.000382626 -0.000117617)
(-0.00127902 -0.000383903 -5.00949e-05)
(-0.000912269 -0.000361594 5.51669e-07)
(-0.00055298 -0.000353884 4.71057e-05)
(-0.000194949 -0.000361068 5.19725e-05)
(0.000160176 -0.000368405 4.07261e-05)
(0.000500835 -0.000349001 2.72568e-05)
(0.000825612 -0.000325522 1.42909e-05)
(0.00116651 -0.000327849 1.73922e-05)
(0.00170128 -0.000301893 5.4102e-05)
(0.00200059 -0.000276235 4.21659e-05)
(0.00228986 -0.000261643 2.19693e-05)
(0.00258105 -0.000266648 1.21394e-05)
(0.00286023 -0.000282173 -1.80521e-05)
(0.00313125 -0.000261813 -4.37798e-05)
(0.00338296 -0.000239484 -3.85981e-05)
(0.00361293 -0.000214691 -4.50711e-05)
(0.00383426 -0.000203385 -5.00246e-05)
(0.00399176 -0.000193041 -4.3844e-05)
(0.00418694 -0.000183389 -2.97574e-05)
(0.00436539 -0.000177617 -2.46715e-06)
(0.00454624 -0.000165633 -5.14792e-06)
(0.00473225 -0.000149469 -2.93672e-05)
(0.00490166 -0.000127106 -4.33618e-05)
(0.00504702 -0.000103382 -5.73269e-05)
(0.00517753 -7.28257e-05 -8.03679e-05)
(0.00529114 -4.35521e-05 -8.49935e-05)
(0.00543318 -1.05845e-05 -5.46842e-05)
(0.00548679 1.17642e-05 -5.2536e-05)
(0.00538114 4.32096e-05 -4.71268e-05)
(0.00538689 8.69849e-05 -3.37595e-05)
(0.00535553 0.000134005 -1.44439e-05)
(0.00515029 0.000189413 -9.09313e-06)
(0.00506754 0.000259508 -1.75555e-05)
(0.00492241 0.00034093 -2.36991e-05)
(0.00464057 0.00043722 -1.98596e-05)
(0.00434345 0.000548889 -1.82056e-05)
(0.00407162 0.000694644 -3.51738e-05)
(0.0041261 0.000995459 -4.21997e-05)
(0.00429486 0.00135458 -4.8852e-05)
(0.00457018 0.00180836 -6.30512e-05)
(0.00477392 0.00231308 -6.96682e-05)
(0.00536694 0.00296007 -9.63407e-05)
(0.00616437 0.00373083 -0.000115456)
(0.00702583 0.00448703 -0.000132591)
(0.00787615 0.00522778 -0.000139767)
(0.00809174 0.00540334 -0.000141145)
(0.00902851 0.00619936 -0.0001448)
(0.0101848 0.00727079 -0.000144989)
(0.0114461 0.00844268 -0.000135797)
(0.0135075 0.00988655 -0.000133075)
(0.0142826 0.0100598 -0.000139271)
(0.01685 0.0107148 -0.000146624)
(0.0197012 0.0117302 -0.000155758)
(0.0242714 0.0120465 -0.000159435)
(0.0273933 0.00886536 -0.000170489)
(0.0285408 0.00619511 -0.000172564)
(0.0284608 0.00414608 -0.000174)
(0.0272868 0.0025732 -0.000171301)
(0.027692 0.00172302 -0.000187178)
(0.0263923 0.000756687 -0.00018578)
(0.0244439 -1.21519e-05 -0.000178842)
(0.0200425 -0.000649027 -0.000152755)
(0.0115275 -0.000694066 -0.000153303)
(0.00262044 0.000451645 -0.000108657)
(-0.00120673 0.00153188 -9.01162e-06)
(-0.00252911 0.00220657 3.2039e-05)
(-0.00280048 0.0023562 3.38148e-05)
(-0.00309334 0.00264339 8.85572e-06)
(-0.00332319 0.0028873 2.40561e-06)
(-0.00350588 0.00308969 -3.1725e-06)
(-0.0036967 0.00324505 -3.17847e-05)
(-0.00373913 0.0032489 -3.70669e-05)
(-0.00394578 0.00335507 -7.10672e-05)
(-0.00414286 0.00335553 -8.43661e-05)
(-0.00436273 0.00322675 -0.000107864)
(-0.00461989 0.0029611 -0.000118071)
(-0.0048842 0.00261577 -0.00011088)
(-0.00517056 0.00222784 -9.80295e-05)
(-0.00542224 0.00181321 -9.34768e-05)
(-0.00568489 0.00135939 -0.000103513)
(-0.00588998 0.000947813 -0.000100746)
(-0.00609441 0.000612894 -9.75833e-05)
(-0.00615318 0.000369116 -0.000115205)
(-0.00609047 0.00017481 -9.90911e-05)
(-0.00603532 2.12993e-05 -7.14578e-05)
(-0.00581394 -0.000116553 -8.05513e-05)
(-0.00566374 -0.000196201 -9.45588e-05)
(-0.00546947 -0.000266601 -0.000101777)
(-0.00523619 -0.000318241 -0.000111498)
(-0.0048291 -0.00040295 -0.000126203)
(-0.00435749 -0.000473651 -0.000125989)
(-0.00405303 -0.000518479 -0.000104567)
(-0.00370879 -0.000546371 -0.000100309)
(-0.00334739 -0.000548871 -0.000115049)
(-0.00298729 -0.000545105 -0.000137592)
(-0.00261984 -0.000536425 -0.000140903)
(-0.00225524 -0.000524359 -0.000144162)
(-0.0018942 -0.000536218 -0.000127628)
(-0.00153113 -0.000543939 -0.000133752)
(-0.00116196 -0.000550281 -0.000117886)
(-0.000717125 -0.000569423 -5.96512e-05)
(-0.000347431 -0.000542254 3.388e-07)
(1.0667e-05 -0.000529961 1.92786e-05)
(0.000365707 -0.000535277 1.31523e-05)
(0.000707129 -0.000537694 7.72049e-06)
(0.00104036 -0.00051319 -5.22037e-07)
(0.00137896 -0.000490603 -9.74792e-07)
(0.00171634 -0.000492072 1.40997e-05)
(0.00224809 -0.000451301 5.253e-05)
(0.00255583 -0.000421141 4.47539e-05)
(0.00285468 -0.000404684 3.2674e-05)
(0.00314993 -0.000408753 3.03029e-05)
(0.00342634 -0.000415696 -1.80023e-06)
(0.00369073 -0.000393351 -3.07686e-05)
(0.00394265 -0.000355568 -9.39393e-06)
(0.00417041 -0.000333349 -1.81751e-05)
(0.00434707 -0.000306356 -3.27995e-05)
(0.00457899 -0.000297882 -4.73023e-05)
(0.00477476 -0.000273764 -4.68749e-05)
(0.00495229 -0.00026374 -3.15968e-06)
(0.00513453 -0.000253505 2.14459e-05)
(0.00531002 -0.000232109 5.35891e-06)
(0.00547602 -0.000201641 -1.47979e-05)
(0.0056262 -0.000167009 -3.793e-05)
(0.00576113 -0.000130835 -5.9744e-05)
(0.00589262 -9.361e-05 -7.17632e-05)
(0.00606486 -3.64718e-05 -6.68502e-05)
(0.00601666 1.45395e-06 -6.27978e-05)
(0.00606654 4.34777e-05 -6.01638e-05)
(0.00608979 0.000105691 -5.75959e-05)
(0.00596117 0.00016621 -4.01202e-05)
(0.00593527 0.000242494 -3.39794e-05)
(0.00587651 0.000337504 -3.75239e-05)
(0.00567902 0.000430088 -4.79184e-05)
(0.00545424 0.000552756 -4.26107e-05)
(0.00521731 0.000711074 -3.21409e-05)
(0.00515835 0.000931723 -3.99393e-05)
(0.0050212 0.00120614 -5.778e-05)
(0.00516961 0.00158207 -7.46505e-05)
(0.00543395 0.00204617 -8.09349e-05)
(0.00582867 0.00260057 -8.217e-05)
(0.00635134 0.00324355 -0.000108525)
(0.00701885 0.00397516 -0.000118362)
(0.00784507 0.00471166 -0.000134779)
(0.00886711 0.00548267 -0.000144694)
(0.00909129 0.00567214 -0.000146911)
(0.0100713 0.00653546 -0.000153126)
(0.0111956 0.00747186 -0.000151113)
(0.0126073 0.00871452 -0.000152244)
(0.0146646 0.00978146 -0.00015662)
(0.0153791 0.00988425 -0.000162278)
(0.0177814 0.0105546 -0.000171716)
(0.0207142 0.0112331 -0.000176982)
(0.0247302 0.0103442 -0.000181363)
(0.0272536 0.00815204 -0.000183667)
(0.0283044 0.00592909 -0.000182652)
(0.0286238 0.00422252 -0.000182611)
(0.0284098 0.00289628 -0.000184672)
(0.0282279 0.00194941 -0.000176582)
(0.0276833 0.00111812 -0.000180185)
(0.026731 0.000426693 -0.000184218)
(0.0244306 -0.000232398 -0.000177364)
(0.0185745 -0.000771702 -0.000159793)
(0.0088344 -0.000459284 -0.000171075)
(0.00211186 0.0006524 -6.46567e-05)
(-0.000969574 0.00165832 1.29667e-05)
(-0.00178157 0.0019764 3.25061e-05)
(-0.00262736 0.00248944 1.13755e-05)
(-0.00309879 0.00282791 7.3542e-06)
(-0.0033363 0.00305633 2.58845e-06)
(-0.00351934 0.00321386 -3.35999e-05)
(-0.00356749 0.00324526 -4.23315e-05)
(-0.00380555 0.0033517 -7.66739e-05)
(-0.00397415 0.00334084 -9.4082e-05)
(-0.00415412 0.00321094 -0.000117228)
(-0.00438179 0.00297157 -0.000133334)
(-0.00462156 0.00264962 -0.00012486)
(-0.00487682 0.00227668 -0.000104995)
(-0.00512679 0.00184523 -0.000101259)
(-0.00534704 0.00139812 -0.00011589)
(-0.00544591 0.000981841 -0.000115241)
(-0.00548924 0.000636603 -0.000102427)
(-0.00545079 0.000351774 -0.000118903)
(-0.00543014 0.000123822 -0.00010048)
(-0.00523718 -6.61235e-05 -6.23188e-05)
(-0.00514025 -0.000209255 -4.64183e-05)
(-0.00499187 -0.000307955 -6.72666e-05)
(-0.00463172 -0.000424856 -9.71299e-05)
(-0.00440136 -0.00049164 -0.000127077)
(-0.00414945 -0.000548546 -0.000146834)
(-0.00370354 -0.000622566 -0.000145516)
(-0.00324198 -0.000718768 -0.000125755)
(-0.00293688 -0.00076199 -9.72795e-05)
(-0.00259767 -0.000774346 -9.31649e-05)
(-0.0022401 -0.000771519 -0.000121556)
(-0.00188589 -0.000758739 -0.000144836)
(-0.00153186 -0.000742759 -0.000144053)
(-0.00118356 -0.000742094 -0.000137199)
(-0.000847464 -0.000755648 -0.000142682)
(-0.000497419 -0.000765637 -0.000115874)
(-0.000144802 -0.000754505 -7.34954e-05)
(0.000202091 -0.000723602 -1.50846e-05)
(0.000547052 -0.000702584 -1.41116e-05)
(0.000896446 -0.0007068 -1.765e-05)
(0.00123617 -0.000700776 -8.64829e-06)
(0.00155979 -0.000671844 -6.87182e-06)
(0.00189731 -0.000651665 -2.68035e-07)
(0.00221855 -0.000643194 1.39873e-05)
(0.00274565 -0.000599797 4.03182e-05)
(0.00306032 -0.000565357 4.2977e-05)
(0.00336204 -0.000546888 4.71008e-05)
(0.0036464 -0.000543204 4.35865e-05)
(0.00391134 -0.000541094 2.41944e-05)
(0.00417006 -0.000521872 -1.50337e-06)
(0.00442912 -0.000477176 1.69095e-05)
(0.00467531 -0.000453547 -1.55749e-06)
(0.00490987 -0.00044298 -2.10512e-05)
(0.00513133 -0.00042464 -3.67387e-05)
(0.00534001 -0.00038637 -4.23736e-05)
(0.00553795 -0.000373291 -1.41396e-05)
(0.00571591 -0.000351207 1.96166e-05)
(0.00587342 -0.000325645 1.85547e-05)
(0.00603033 -0.000290025 -6.98573e-07)
(0.00618284 -0.000246858 -2.05949e-05)
(0.00632793 -0.000204085 -3.80881e-05)
(0.0063518 -0.000148391 -5.92879e-05)
(0.00654278 -6.87484e-05 -7.0171e-05)
(0.00662416 -2.33492e-05 -7.44697e-05)
(0.00668245 3.37128e-05 -8.7612e-05)
(0.00660982 0.000111846 -9.24334e-05)
(0.00663414 0.000195466 -8.86122e-05)
(0.00662463 0.000288637 -7.51162e-05)
(0.00649092 0.000396 -5.68008e-05)
(0.00634372 0.00051238 -5.35226e-05)
(0.00625556 0.00067438 -5.13331e-05)
(0.00608956 0.000871794 -4.55595e-05)
(0.00593788 0.00109972 -5.05234e-05)
(0.00600586 0.00141829 -7.02081e-05)
(0.00599893 0.00177246 -8.68505e-05)
(0.00627597 0.00223855 -9.79723e-05)
(0.00667844 0.00279046 -0.000103187)
(0.00723244 0.00342864 -0.000110817)
(0.00800208 0.00413682 -0.000116155)
(0.00882341 0.00487407 -0.000125886)
(0.0096785 0.00562959 -0.000139418)
(0.00991 0.00580874 -0.000141862)
(0.0110689 0.00661307 -0.000152344)
(0.0122472 0.00757829 -0.00016044)
(0.0137053 0.00863166 -0.000165805)
(0.0157432 0.00956552 -0.000175413)
(0.0164256 0.00964879 -0.000180456)
(0.0187834 0.010158 -0.000186882)
(0.0218408 0.0102418 -0.000189431)
(0.0250134 0.00933871 -0.000188737)
(0.0270142 0.00741839 -0.000183457)
(0.0280256 0.00565904 -0.000178068)
(0.0284106 0.00416953 -0.000173581)
(0.0284532 0.00298522 -0.000174127)
(0.0282051 0.00205062 -0.000159739)
(0.0279457 0.00133944 -0.0001598)
(0.0274365 0.000711292 -0.000168005)
(0.0263144 0.000149839 -0.000177941)
(0.0230975 -0.000455067 -0.000171085)
(0.0163803 -0.000797512 -0.00018325)
(0.00807781 -0.0003252 -0.000146699)
(0.00266675 0.000664903 -5.79847e-05)
(0.00100417 0.00108823 -2.59624e-05)
(-0.00130264 0.00196723 6.23988e-06)
(-0.0020606 0.00238804 3.74309e-06)
(-0.00253853 0.0027017 -3.24704e-06)
(-0.00301519 0.00298925 -3.34235e-05)
(-0.00308726 0.00303568 -4.16883e-05)
(-0.00328618 0.00313789 -6.42662e-05)
(-0.00349336 0.00315824 -7.40718e-05)
(-0.00373407 0.00308483 -0.000105646)
(-0.00394752 0.00287748 -0.000133158)
(-0.00416107 0.00257248 -0.000123666)
(-0.00437156 0.0022247 -0.000107803)
(-0.00459334 0.0018073 -0.000103869)
(-0.00464269 0.00135666 -0.000129684)
(-0.00477554 0.0009542 -0.000144189)
(-0.00472115 0.000600295 -0.000136729)
(-0.00460028 0.000286455 -0.000140249)
(-0.00442419 2.98166e-05 -0.000116635)
(-0.00436235 -0.000163334 -7.28721e-05)
(-0.00408463 -0.000351732 -4.57824e-05)
(-0.00395703 -0.000472571 -6.54778e-05)
(-0.00378598 -0.000580138 -0.00011073)
(-0.00335998 -0.000703261 -0.000150133)
(-0.00312432 -0.000761878 -0.000167846)
(-0.00270402 -0.000842625 -0.000169084)
(-0.00242722 -0.000903973 -0.000149393)
(-0.00213388 -0.000960443 -0.000111412)
(-0.00180437 -0.000988566 -9.47431e-05)
(-0.00127619 -0.00103734 -0.000123359)
(-0.000952954 -0.00101 -0.000148097)
(-0.000634136 -0.000994748 -0.000139633)
(-0.000298051 -0.000993515 -0.000135811)
(3.7611e-05 -0.0010021 -0.000118181)
(0.000365116 -0.00101588 -7.27929e-05)
(0.000690563 -0.000997843 -6.22967e-05)
(0.00101776 -0.000970134 -3.48868e-05)
(0.00135788 -0.000955714 -3.54696e-05)
(0.0016939 -0.000954044 -3.22529e-05)
(0.00203064 -0.000939023 -1.26946e-05)
(0.0023622 -0.000905366 1.04943e-06)
(0.00268516 -0.000885624 1.38877e-05)
(0.00299039 -0.000858733 3.0808e-05)
(0.00348799 -0.000817383 3.66666e-05)
(0.00379332 -0.000781228 4.8495e-05)
(0.00408972 -0.000749576 5.51864e-05)
(0.0043657 -0.000728881 5.35425e-05)
(0.00461708 -0.000715341 5.28121e-05)
(0.00485571 -0.000695859 4.16058e-05)
(0.00509544 -0.000652502 2.84286e-05)
(0.00533567 -0.000617718 4.1828e-06)
(0.00555946 -0.000598534 -1.67748e-05)
(0.00577445 -0.00057147 -2.80368e-05)
(0.00597305 -0.000529577 -2.81952e-05)
(0.00617501 -0.000504343 -2.50577e-05)
(0.00635308 -0.000463396 -1.24913e-05)
(0.00651334 -0.000427062 -9.7321e-06)
(0.0065429 -0.000372266 -1.67628e-05)
(0.00669375 -0.000327892 -2.57296e-05)
(0.00684254 -0.000279509 -3.38551e-05)
(0.00697863 -0.000228123 -5.3482e-05)
(0.00717589 -0.000123818 -8.40506e-05)
(0.00726879 -5.8343e-05 -9.35988e-05)
(0.00721009 2.09048e-05 -0.000107836)
(0.00726512 0.000108305 -0.000120066)
(0.00730701 0.000209223 -0.000114443)
(0.00721174 0.000322181 -0.000101132)
(0.00720816 0.00045281 -8.35988e-05)
(0.00708901 0.000597728 -6.35596e-05)
(0.00694519 0.000768776 -6.40795e-05)
(0.00681089 0.000988267 -6.13663e-05)
(0.00670151 0.00124063 -7.15478e-05)
(0.0068146 0.00156372 -8.94753e-05)
(0.00702371 0.00195414 -0.000100678)
(0.00732703 0.00242105 -0.000116719)
(0.00773444 0.0029616 -0.000127675)
(0.00826299 0.00357164 -0.000126715)
(0.00890415 0.00424336 -0.000117453)
(0.00966824 0.00494252 -0.000115866)
(0.0107269 0.00568736 -0.000129106)
(0.010969 0.00586372 -0.000132575)
(0.0119672 0.00664198 -0.000149094)
(0.0132033 0.00749664 -0.000164838)
(0.0149016 0.00846487 -0.000178641)
(0.0168607 0.00920264 -0.000186117)
(0.0175504 0.00920448 -0.000186386)
(0.0198189 0.00943983 -0.000186867)
(0.0226622 0.0093272 -0.000182632)
(0.0251705 0.00825319 -0.000173165)
(0.0267578 0.00668072 -0.000162625)
(0.0276646 0.00527461 -0.000159797)
(0.0281012 0.0040284 -0.000157484)
(0.0282846 0.00300087 -0.000157914)
(0.0280623 0.00211918 -0.000141203)
(0.0279185 0.00148906 -0.000139891)
(0.0276632 0.000950779 -0.000143644)
(0.0271952 0.000496889 -0.000154825)
(0.0259548 2.28162e-05 -0.000169802)
(0.0225966 -0.000490428 -0.000173054)
(0.0158401 -0.000753148 -0.000183199)
(0.00759886 -0.000184887 -0.000129133)
(0.00624283 -6.10543e-06 -0.000113468)
(0.00192882 0.00095898 -4.8068e-05)
(0.00027781 0.00154248 -4.31095e-05)
(-0.00114426 0.00213062 -3.27564e-05)
(-0.00170104 0.00241957 -4.19113e-05)
(-0.00185546 0.00249576 -4.43598e-05)
(-0.00245167 0.00277406 -5.42805e-05)
(-0.00267962 0.00282273 -5.90628e-05)
(-0.00287154 0.00276524 -7.60911e-05)
(-0.00306392 0.00260325 -0.000113037)
(-0.00345297 0.002394 -0.000119259)
(-0.00344175 0.00202772 -0.000107195)
(-0.00361839 0.00165837 -0.000111662)
(-0.00377993 0.00124846 -0.000144732)
(-0.00370484 0.000834684 -0.00019077)
(-0.00357608 0.000489168 -0.000219168)
(-0.00355165 0.000174858 -0.000206701)
(-0.00334229 -8.46981e-05 -0.00017176)
(-0.00307676 -0.000314807 -0.000126748)
(-0.00298587 -0.000494799 -8.37076e-05)
(-0.00287881 -0.000631771 -8.55907e-05)
(-0.00246893 -0.000801303 -0.000121207)
(-0.00228569 -0.000901304 -0.000151607)
(-0.00191718 -0.000998316 -0.000193589)
(-0.00138504 -0.00110875 -0.00018189)
(-0.00111468 -0.00117863 -0.000149138)
(-0.000831973 -0.00124516 -0.000120917)
(-0.000531765 -0.00128861 -9.45279e-05)
(-0.000225119 -0.00127829 -9.19639e-05)
(6.32007e-05 -0.00124316 -0.000107005)
(0.000372451 -0.00124262 -0.000104627)
(0.000696814 -0.00124655 -0.000103922)
(0.00102376 -0.00125318 -7.45757e-05)
(0.00147748 -0.00128964 -3.69581e-05)
(0.00179805 -0.00126948 -3.19021e-05)
(0.00211277 -0.00124955 -1.51572e-05)
(0.00244292 -0.00124837 -1.88361e-05)
(0.00277327 -0.00124078 -7.81327e-06)
(0.0030825 -0.00121924 7.47264e-06)
(0.0033967 -0.00118183 2.12085e-05)
(0.00370424 -0.00114679 2.8165e-05)
(0.00400429 -0.00111029 3.9393e-05)
(0.00446863 -0.00106052 4.94413e-05)
(0.00474544 -0.00102665 5.8683e-05)
(0.00501729 -0.000986912 5.86787e-05)
(0.00527285 -0.000944726 5.04843e-05)
(0.0055154 -0.000916164 6.14188e-05)
(0.00574237 -0.000887689 6.22411e-05)
(0.00595918 -0.00084479 4.25128e-05)
(0.00616753 -0.000801243 6.93546e-06)
(0.00636204 -0.000774063 -9.24077e-06)
(0.0064647 -0.000713279 -2.98496e-05)
(0.00665318 -0.00067575 -3.01846e-05)
(0.0068315 -0.000630566 -3.38347e-05)
(0.006989 -0.000574366 -4.01871e-05)
(0.00714762 -0.000529581 -4.07388e-05)
(0.00730666 -0.000493285 -3.99131e-05)
(0.00745547 -0.00043977 -3.38417e-05)