/*--------------------------------*- C++ -*----------------------------------*\
| =========                 |                                                 |
| \\      /  F ield         | OpenFOAM: The Open Source CFD Toolbox           |
|  \\    /   O peration     | Version:  v1912                                 |
|   \\  /    A nd           | Website:  www.openfoam.com                      |
|    \\/     M anipulation  |                                                 |
\*---------------------------------------------------------------------------*/
FoamFile
{
    version     2.0;
    format      ascii;
    class       volVectorField;
    location    "10000";
    object      C;
}
// * * * * * * * * * * * * * * * * * * * * * * * * * * * * * * * * * * * * * //

dimensions      [0 1 0 0 0 0 0];


internalField   nonuniform List<vector> 
2500
(
(0.1 0.00155583 0.00155583)
(0.1 0.00476557 0.00155583)
(0.1 0.00817767 0.00155583)
(0.1 0.0118049 0.00155583)
(0.1 0.0156608 0.00155583)
(0.1 0.0197598 0.00155583)
(0.1 0.0241172 0.00155583)
(0.1 0.0287493 0.00155583)
(0.1 0.0336735 0.00155583)
(0.1 0.0389081 0.00155583)
(0.1 0.0444727 0.00155583)
(0.1 0.0503881 0.00155583)
(0.1 0.0566765 0.00155583)
(0.1 0.0633613 0.00155583)
(0.1 0.0704676 0.00155583)
(0.1 0.0780219 0.00155583)
(0.1 0.0860524 0.00155583)
(0.1 0.0945892 0.00155583)
(0.1 0.103664 0.00155583)
(0.1 0.113311 0.00155583)
(0.1 0.123567 0.00155583)
(0.1 0.134469 0.00155583)
(0.1 0.146058 0.00155583)
(0.1 0.158378 0.00155583)
(0.1 0.171474 0.00155583)
(0.1 0.185397 0.00155583)
(0.1 0.200197 0.00155583)
(0.1 0.21593 0.00155583)
(0.1 0.232655 0.00155583)
(0.1 0.250434 0.00155583)
(0.1 0.269334 0.00155583)
(0.1 0.289426 0.00155583)
(0.1 0.310785 0.00155583)
(0.1 0.33349 0.00155583)
(0.1 0.357626 0.00155583)
(0.1 0.383284 0.00155583)
(0.1 0.41056 0.00155583)
(0.1 0.439555 0.00155583)
(0.1 0.470379 0.00155583)
(0.1 0.503146 0.00155583)
(0.1 0.537978 0.00155583)
(0.1 0.575007 0.00155583)
(0.1 0.614369 0.00155583)
(0.1 0.656214 0.00155583)
(0.1 0.700697 0.00155583)
(0.1 0.747984 0.00155583)
(0.1 0.798252 0.00155583)
(0.1 0.851689 0.00155583)
(0.1 0.908496 0.00155583)
(0.1 0.968883 0.00155583)
(0.1 0.00155583 0.00476557)
(0.1 0.00476557 0.00476557)
(0.1 0.00817767 0.00476557)
(0.1 0.0118049 0.00476557)
(0.1 0.0156608 0.00476557)
(0.1 0.0197598 0.00476557)
(0.1 0.0241172 0.00476557)
(0.1 0.0287493 0.00476557)
(0.1 0.0336735 0.00476557)
(0.1 0.0389081 0.00476557)
(0.1 0.0444727 0.00476557)
(0.1 0.0503881 0.00476557)
(0.1 0.0566765 0.00476557)
(0.1 0.0633613 0.00476557)
(0.1 0.0704676 0.00476557)
(0.1 0.0780219 0.00476557)
(0.1 0.0860524 0.00476557)
(0.1 0.0945892 0.00476557)
(0.1 0.103664 0.00476557)
(0.1 0.113311 0.00476557)
(0.1 0.123567 0.00476557)
(0.1 0.134469 0.00476557)
(0.1 0.146058 0.00476557)
(0.1 0.158378 0.00476557)
(0.1 0.171474 0.00476557)
(0.1 0.185397 0.00476557)
(0.1 0.200197 0.00476557)
(0.1 0.21593 0.00476557)
(0.1 0.232655 0.00476557)
(0.1 0.250434 0.00476557)
(0.1 0.269334 0.00476557)
(0.1 0.289426 0.00476557)
(0.1 0.310785 0.00476557)
(0.1 0.33349 0.00476557)
(0.1 0.357626 0.00476557)
(0.1 0.383284 0.00476557)
(0.1 0.41056 0.00476557)
(0.1 0.439555 0.00476557)
(0.1 0.470379 0.00476557)
(0.1 0.503146 0.00476557)
(0.1 0.537978 0.00476557)
(0.1 0.575007 0.00476557)
(0.1 0.614369 0.00476557)
(0.1 0.656214 0.00476557)
(0.1 0.700697 0.00476557)
(0.1 0.747984 0.00476557)
(0.1 0.798252 0.00476557)
(0.1 0.851689 0.00476557)
(0.1 0.908496 0.00476557)
(0.1 0.968883 0.00476557)
(0.1 0.00155583 0.00817767)
(0.1 0.00476557 0.00817767)
(0.1 0.00817767 0.00817767)
(0.1 0.0118049 0.00817767)
(0.1 0.0156608 0.00817767)
(0.1 0.0197598 0.00817767)
(0.1 0.0241172 0.00817767)
(0.1 0.0287493 0.00817767)
(0.1 0.0336735 0.00817767)
(0.1 0.0389081 0.00817767)
(0.1 0.0444727 0.00817767)
(0.1 0.0503881 0.00817767)
(0.1 0.0566765 0.00817767)
(0.1 0.0633613 0.00817767)
(0.1 0.0704676 0.00817767)
(0.1 0.0780219 0.00817767)
(0.1 0.0860524 0.00817767)
(0.1 0.0945892 0.00817767)
(0.1 0.103664 0.00817767)
(0.1 0.113311 0.00817767)
(0.1 0.123567 0.00817767)
(0.1 0.134469 0.00817767)
(0.1 0.146058 0.00817767)
(0.1 0.158378 0.00817767)
(0.1 0.171474 0.00817767)
(0.1 0.185397 0.00817767)
(0.1 0.200197 0.00817767)
(0.1 0.21593 0.00817767)
(0.1 0.232655 0.00817767)
(0.1 0.250434 0.00817767)
(0.1 0.269334 0.00817767)
(0.1 0.289426 0.00817767)
(0.1 0.310785 0.00817767)
(0.1 0.33349 0.00817767)
(0.1 0.357626 0.00817767)
(0.1 0.383284 0.00817767)
(0.1 0.41056 0.00817767)
(0.1 0.439555 0.00817767)
(0.1 0.470379 0.00817767)
(0.1 0.503146 0.00817767)
(0.1 0.537978 0.00817767)
(0.1 0.575007 0.00817767)
(0.1 0.614369 0.00817767)
(0.1 0.656214 0.00817767)
(0.1 0.700697 0.00817767)
(0.1 0.747984 0.00817767)
(0.1 0.798252 0.00817767)
(0.1 0.851689 0.00817767)
(0.1 0.908496 0.00817767)
(0.1 0.968883 0.00817767)
(0.1 0.00155583 0.0118049)
(0.1 0.00476557 0.0118049)
(0.1 0.00817767 0.0118049)
(0.1 0.0118049 0.0118049)
(0.1 0.0156608 0.0118049)
(0.1 0.0197598 0.0118049)
(0.1 0.0241172 0.0118049)
(0.1 0.0287493 0.0118049)
(0.1 0.0336735 0.0118049)
(0.1 0.0389081 0.0118049)
(0.1 0.0444727 0.0118049)
(0.1 0.0503881 0.0118049)
(0.1 0.0566765 0.0118049)
(0.1 0.0633613 0.0118049)
(0.1 0.0704676 0.0118049)
(0.1 0.0780219 0.0118049)
(0.1 0.0860524 0.0118049)
(0.1 0.0945892 0.0118049)
(0.1 0.103664 0.0118049)
(0.1 0.113311 0.0118049)
(0.1 0.123567 0.0118049)
(0.1 0.134469 0.0118049)
(0.1 0.146058 0.0118049)
(0.1 0.158378 0.0118049)
(0.1 0.171474 0.0118049)
(0.1 0.185397 0.0118049)
(0.1 0.200197 0.0118049)
(0.1 0.21593 0.0118049)
(0.1 0.232655 0.0118049)
(0.1 0.250434 0.0118049)
(0.1 0.269334 0.0118049)
(0.1 0.289426 0.0118049)
(0.1 0.310785 0.0118049)
(0.1 0.33349 0.0118049)
(0.1 0.357626 0.0118049)
(0.1 0.383284 0.0118049)
(0.1 0.41056 0.0118049)
(0.1 0.439555 0.0118049)
(0.1 0.470379 0.0118049)
(0.1 0.503146 0.0118049)
(0.1 0.537978 0.0118049)
(0.1 0.575007 0.0118049)
(0.1 0.614369 0.0118049)
(0.1 0.656214 0.0118049)
(0.1 0.700697 0.0118049)
(0.1 0.747984 0.0118049)
(0.1 0.798252 0.0118049)
(0.1 0.851689 0.0118049)
(0.1 0.908496 0.0118049)
(0.1 0.968883 0.0118049)
(0.1 0.00155583 0.0156608)
(0.1 0.00476557 0.0156608)
(0.1 0.00817767 0.0156608)
(0.1 0.0118049 0.0156608)
(0.1 0.0156608 0.0156608)
(0.1 0.0197598 0.0156608)
(0.1 0.0241172 0.0156608)
(0.1 0.0287493 0.0156608)
(0.1 0.0336735 0.0156608)
(0.1 0.0389081 0.0156608)
(0.1 0.0444727 0.0156608)
(0.1 0.0503881 0.0156608)
(0.1 0.0566765 0.0156608)
(0.1 0.0633613 0.0156608)
(0.1 0.0704676 0.0156608)
(0.1 0.0780219 0.0156608)
(0.1 0.0860524 0.0156608)
(0.1 0.0945892 0.0156608)
(0.1 0.103664 0.0156608)
(0.1 0.113311 0.0156608)
(0.1 0.123567 0.0156608)
(0.1 0.134469 0.0156608)
(0.1 0.146058 0.0156608)
(0.1 0.158378 0.0156608)
(0.1 0.171474 0.0156608)
(0.1 0.185397 0.0156608)
(0.1 0.200197 0.0156608)
(0.1 0.21593 0.0156608)
(0.1 0.232655 0.0156608)
(0.1 0.250434 0.0156608)
(0.1 0.269334 0.0156608)
(0.1 0.289426 0.0156608)
(0.1 0.310785 0.0156608)
(0.1 0.33349 0.0156608)
(0.1 0.357626 0.0156608)
(0.1 0.383284 0.0156608)
(0.1 0.41056 0.0156608)
(0.1 0.439555 0.0156608)
(0.1 0.470379 0.0156608)
(0.1 0.503146 0.0156608)
(0.1 0.537978 0.0156608)
(0.1 0.575007 0.0156608)
(0.1 0.614369 0.0156608)
(0.1 0.656214 0.0156608)
(0.1 0.700697 0.0156608)
(0.1 0.747984 0.0156608)
(0.1 0.798252 0.0156608)
(0.1 0.851689 0.0156608)
(0.1 0.908496 0.0156608)
(0.1 0.968883 0.0156608)
(0.1 0.00155583 0.0197598)
(0.1 0.00476557 0.0197598)
(0.1 0.00817767 0.0197598)
(0.1 0.0118049 0.0197598)
(0.1 0.0156608 0.0197598)
(0.1 0.0197598 0.0197598)
(0.1 0.0241172 0.0197598)
(0.1 0.0287493 0.0197598)
(0.1 0.0336735 0.0197598)
(0.1 0.0389081 0.0197598)
(0.1 0.0444727 0.0197598)
(0.1 0.0503881 0.0197598)
(0.1 0.0566765 0.0197598)
(0.1 0.0633613 0.0197598)
(0.1 0.0704676 0.0197598)
(0.1 0.0780219 0.0197598)
(0.1 0.0860524 0.0197598)
(0.1 0.0945892 0.0197598)
(0.1 0.103664 0.0197598)
(0.1 0.113311 0.0197598)
(0.1 0.123567 0.0197598)
(0.1 0.134469 0.0197598)
(0.1 0.146058 0.0197598)
(0.1 0.158378 0.0197598)
(0.1 0.171474 0.0197598)
(0.1 0.185397 0.0197598)
(0.1 0.200197 0.0197598)
(0.1 0.21593 0.0197598)
(0.1 0.232655 0.0197598)
(0.1 0.250434 0.0197598)
(0.1 0.269334 0.0197598)
(0.1 0.289426 0.0197598)
(0.1 0.310785 0.0197598)
(0.1 0.33349 0.0197598)
(0.1 0.357626 0.0197598)
(0.1 0.383284 0.0197598)
(0.1 0.41056 0.0197598)
(0.1 0.439555 0.0197598)
(0.1 0.470379 0.0197598)
(0.1 0.503146 0.0197598)
(0.1 0.537978 0.0197598)
(0.1 0.575007 0.0197598)
(0.1 0.614369 0.0197598)
(0.1 0.656214 0.0197598)
(0.1 0.700697 0.0197598)
(0.1 0.747984 0.0197598)
(0.1 0.798252 0.0197598)
(0.1 0.851689 0.0197598)
(0.1 0.908496 0.0197598)
(0.1 0.968883 0.0197598)
(0.1 0.00155583 0.0241172)
(0.1 0.00476557 0.0241172)
(0.1 0.00817767 0.0241172)
(0.1 0.0118049 0.0241172)
(0.1 0.0156608 0.0241172)
(0.1 0.0197598 0.0241172)
(0.1 0.0241172 0.0241172)
(0.1 0.0287493 0.0241172)
(0.1 0.0336735 0.0241172)
(0.1 0.0389081 0.0241172)
(0.1 0.0444727 0.0241172)
(0.1 0.0503881 0.0241172)
(0.1 0.0566765 0.0241172)
(0.1 0.0633613 0.0241172)
(0.1 0.0704676 0.0241172)
(0.1 0.0780219 0.0241172)
(0.1 0.0860524 0.0241172)
(0.1 0.0945892 0.0241172)
(0.1 0.103664 0.0241172)
(0.1 0.113311 0.0241172)
(0.1 0.123567 0.0241172)
(0.1 0.134469 0.0241172)
(0.1 0.146058 0.0241172)
(0.1 0.158378 0.0241172)
(0.1 0.171474 0.0241172)
(0.1 0.185397 0.0241172)
(0.1 0.200197 0.0241172)
(0.1 0.21593 0.0241172)
(0.1 0.232655 0.0241172)
(0.1 0.250434 0.0241172)
(0.1 0.269334 0.0241172)
(0.1 0.289426 0.0241172)
(0.1 0.310785 0.0241172)
(0.1 0.33349 0.0241172)
(0.1 0.357626 0.0241172)
(0.1 0.383284 0.0241172)
(0.1 0.41056 0.0241172)
(0.1 0.439555 0.0241172)
(0.1 0.470379 0.0241172)
(0.1 0.503146 0.0241172)
(0.1 0.537978 0.0241172)
(0.1 0.575007 0.0241172)
(0.1 0.614369 0.0241172)
(0.1 0.656214 0.0241172)
(0.1 0.700697 0.0241172)
(0.1 0.747984 0.0241172)
(0.1 0.798252 0.0241172)
(0.1 0.851689 0.0241172)
(0.1 0.908496 0.0241172)
(0.1 0.968883 0.0241172)
(0.1 0.00155583 0.0287493)
(0.1 0.00476557 0.0287493)
(0.1 0.00817767 0.0287493)
(0.1 0.0118049 0.0287493)
(0.1 0.0156608 0.0287493)
(0.1 0.0197598 0.0287493)
(0.1 0.0241172 0.0287493)
(0.1 0.0287493 0.0287493)
(0.1 0.0336735 0.0287493)
(0.1 0.0389081 0.0287493)
(0.1 0.0444727 0.0287493)
(0.1 0.0503881 0.0287493)
(0.1 0.0566765 0.0287493)
(0.1 0.0633613 0.0287493)
(0.1 0.0704676 0.0287493)
(0.1 0.0780219 0.0287493)
(0.1 0.0860524 0.0287493)
(0.1 0.0945892 0.0287493)
(0.1 0.103664 0.0287493)
(0.1 0.113311 0.0287493)
(0.1 0.123567 0.0287493)
(0.1 0.134469 0.0287493)
(0.1 0.146058 0.0287493)
(0.1 0.158378 0.0287493)
(0.1 0.171474 0.0287493)
(0.1 0.185397 0.0287493)
(0.1 0.200197 0.0287493)
(0.1 0.21593 0.0287493)
(0.1 0.232655 0.0287493)
(0.1 0.250434 0.0287493)
(0.1 0.269334 0.0287493)
(0.1 0.289426 0.0287493)
(0.1 0.310785 0.0287493)
(0.1 0.33349 0.0287493)
(0.1 0.357626 0.0287493)
(0.1 0.383284 0.0287493)
(0.1 0.41056 0.0287493)
(0.1 0.439555 0.0287493)
(0.1 0.470379 0.0287493)
(0.1 0.503146 0.0287493)
(0.1 0.537978 0.0287493)
(0.1 0.575007 0.0287493)
(0.1 0.614369 0.0287493)
(0.1 0.656214 0.0287493)
(0.1 0.700697 0.0287493)
(0.1 0.747984 0.0287493)
(0.1 0.798252 0.0287493)
(0.1 0.851689 0.0287493)
(0.1 0.908496 0.0287493)
(0.1 0.968883 0.0287493)
(0.1 0.00155583 0.0336735)
(0.1 0.00476557 0.0336735)
(0.1 0.00817767 0.0336735)
(0.1 0.0118049 0.0336735)
(0.1 0.0156608 0.0336735)
(0.1 0.0197598 0.0336735)
(0.1 0.0241172 0.0336735)
(0.1 0.0287493 0.0336735)
(0.1 0.0336735 0.0336735)
(0.1 0.0389081 0.0336735)
(0.1 0.0444727 0.0336735)
(0.1 0.0503881 0.0336735)
(0.1 0.0566765 0.0336735)
(0.1 0.0633613 0.0336735)
(0.1 0.0704676 0.0336735)
(0.1 0.0780219 0.0336735)
(0.1 0.0860524 0.0336735)
(0.1 0.0945892 0.0336735)
(0.1 0.103664 0.0336735)
(0.1 0.113311 0.0336735)
(0.1 0.123567 0.0336735)
(0.1 0.134469 0.0336735)
(0.1 0.146058 0.0336735)
(0.1 0.158378 0.0336735)
(0.1 0.171474 0.0336735)
(0.1 0.185397 0.0336735)
(0.1 0.200197 0.0336735)
(0.1 0.21593 0.0336735)
(0.1 0.232655 0.0336735)
(0.1 0.250434 0.0336735)
(0.1 0.269334 0.0336735)
(0.1 0.289426 0.0336735)
(0.1 0.310785 0.0336735)
(0.1 0.33349 0.0336735)
(0.1 0.357626 0.0336735)
(0.1 0.383284 0.0336735)
(0.1 0.41056 0.0336735)
(0.1 0.439555 0.0336735)
(0.1 0.470379 0.0336735)
(0.1 0.503146 0.0336735)
(0.1 0.537978 0.0336735)
(0.1 0.575007 0.0336735)
(0.1 0.614369 0.0336735)
(0.1 0.656214 0.0336735)
(0.1 0.700697 0.0336735)
(0.1 0.747984 0.0336735)
(0.1 0.798252 0.0336735)
(0.1 0.851689 0.0336735)
(0.1 0.908496 0.0336735)
(0.1 0.968883 0.0336735)
(0.1 0.00155583 0.0389081)
(0.1 0.00476557 0.0389081)
(0.1 0.00817767 0.0389081)
(0.1 0.0118049 0.0389081)
(0.1 0.0156608 0.0389081)
(0.1 0.0197598 0.0389081)
(0.1 0.0241172 0.0389081)
(0.1 0.0287493 0.0389081)
(0.1 0.0336735 0.0389081)
(0.1 0.0389081 0.0389081)
(0.1 0.0444727 0.0389081)
(0.1 0.0503881 0.0389081)
(0.1 0.0566765 0.0389081)
(0.1 0.0633613 0.0389081)
(0.1 0.0704676 0.0389081)
(0.1 0.0780219 0.0389081)
(0.1 0.0860524 0.0389081)
(0.1 0.0945892 0.0389081)
(0.1 0.103664 0.0389081)
(0.1 0.113311 0.0389081)
(0.1 0.123567 0.0389081)
(0.1 0.134469 0.0389081)
(0.1 0.146058 0.0389081)
(0.1 0.158378 0.0389081)
(0.1 0.171474 0.0389081)
(0.1 0.185397 0.0389081)
(0.1 0.200197 0.0389081)
(0.1 0.21593 0.0389081)
(0.1 0.232655 0.0389081)
(0.1 0.250434 0.0389081)
(0.1 0.269334 0.0389081)
(0.1 0.289426 0.0389081)
(0.1 0.310785 0.0389081)
(0.1 0.33349 0.0389081)
(0.1 0.357626 0.0389081)
(0.1 0.383284 0.0389081)
(0.1 0.41056 0.0389081)
(0.1 0.439555 0.0389081)
(0.1 0.470379 0.0389081)
(0.1 0.503146 0.0389081)
(0.1 0.537978 0.0389081)
(0.1 0.575007 0.0389081)
(0.1 0.614369 0.0389081)
(0.1 0.656214 0.0389081)
(0.1 0.700697 0.0389081)
(0.1 0.747984 0.0389081)
(0.1 0.798252 0.0389081)
(0.1 0.851689 0.0389081)
(0.1 0.908496 0.0389081)
(0.1 0.968883 0.0389081)
(0.1 0.00155583 0.0444727)
(0.1 0.00476557 0.0444727)
(0.1 0.00817767 0.0444727)
(0.1 0.0118049 0.0444727)
(0.1 0.0156608 0.0444727)
(0.1 0.0197598 0.0444727)
(0.1 0.0241172 0.0444727)
(0.1 0.0287493 0.0444727)
(0.1 0.0336735 0.0444727)
(0.1 0.0389081 0.0444727)
(0.1 0.0444727 0.0444727)
(0.1 0.0503881 0.0444727)
(0.1 0.0566765 0.0444727)
(0.1 0.0633613 0.0444727)
(0.1 0.0704676 0.0444727)
(0.1 0.0780219 0.0444727)
(0.1 0.0860524 0.0444727)
(0.1 0.0945892 0.0444727)
(0.1 0.103664 0.0444727)
(0.1 0.113311 0.0444727)
(0.1 0.123567 0.0444727)
(0.1 0.134469 0.0444727)
(0.1 0.146058 0.0444727)
(0.1 0.158378 0.0444727)
(0.1 0.171474 0.0444727)
(0.1 0.185397 0.0444727)
(0.1 0.200197 0.0444727)
(0.1 0.21593 0.0444727)
(0.1 0.232655 0.0444727)
(0.1 0.250434 0.0444727)
(0.1 0.269334 0.0444727)
(0.1 0.289426 0.0444727)
(0.1 0.310785 0.0444727)
(0.1 0.33349 0.0444727)
(0.1 0.357626 0.0444727)
(0.1 0.383284 0.0444727)
(0.1 0.41056 0.0444727)
(0.1 0.439555 0.0444727)
(0.1 0.470379 0.0444727)
(0.1 0.503146 0.0444727)
(0.1 0.537978 0.0444727)
(0.1 0.575007 0.0444727)
(0.1 0.614369 0.0444727)
(0.1 0.656214 0.0444727)
(0.1 0.700697 0.0444727)
(0.1 0.747984 0.0444727)
(0.1 0.798252 0.0444727)
(0.1 0.851689 0.0444727)
(0.1 0.908496 0.0444727)
(0.1 0.968883 0.0444727)
(0.1 0.00155583 0.0503881)
(0.1 0.00476557 0.0503881)
(0.1 0.00817767 0.0503881)
(0.1 0.0118049 0.0503881)
(0.1 0.0156608 0.0503881)
(0.1 0.0197598 0.0503881)
(0.1 0.0241172 0.0503881)
(0.1 0.0287493 0.0503881)
(0.1 0.0336735 0.0503881)
(0.1 0.0389081 0.0503881)
(0.1 0.0444727 0.0503881)
(0.1 0.0503881 0.0503881)
(0.1 0.0566765 0.0503881)
(0.1 0.0633613 0.0503881)
(0.1 0.0704676 0.0503881)
(0.1 0.0780219 0.0503881)
(0.1 0.0860524 0.0503881)
(0.1 0.0945892 0.0503881)
(0.1 0.103664 0.0503881)
(0.1 0.113311 0.0503881)
(0.1 0.123567 0.0503881)
(0.1 0.134469 0.0503881)
(0.1 0.146058 0.0503881)
(0.1 0.158378 0.0503881)
(0.1 0.171474 0.0503881)
(0.1 0.185397 0.0503881)
(0.1 0.200197 0.0503881)
(0.1 0.21593 0.0503881)
(0.1 0.232655 0.0503881)
(0.1 0.250434 0.0503881)
(0.1 0.269334 0.0503881)
(0.1 0.289426 0.0503881)
(0.1 0.310785 0.0503881)
(0.1 0.33349 0.0503881)
(0.1 0.357626 0.0503881)
(0.1 0.383284 0.0503881)
(0.1 0.41056 0.0503881)
(0.1 0.439555 0.0503881)
(0.1 0.470379 0.0503881)
(0.1 0.503146 0.0503881)
(0.1 0.537978 0.0503881)
(0.1 0.575007 0.0503881)
(0.1 0.614369 0.0503881)
(0.1 0.656214 0.0503881)
(0.1 0.700697 0.0503881)
(0.1 0.747984 0.0503881)
(0.1 0.798252 0.0503881)
(0.1 0.851689 0.0503881)
(0.1 0.908496 0.0503881)
(0.1 0.968883 0.0503881)
(0.1 0.00155583 0.0566765)
(0.1 0.00476557 0.0566765)
(0.1 0.00817767 0.0566765)
(0.1 0.0118049 0.0566765)
(0.1 0.0156608 0.0566765)
(0.1 0.0197598 0.0566765)
(0.1 0.0241172 0.0566765)
(0.1 0.0287493 0.0566765)
(0.1 0.0336735 0.0566765)
(0.1 0.0389081 0.0566765)
(0.1 0.0444727 0.0566765)
(0.1 0.0503881 0.0566765)
(0.1 0.0566765 0.0566765)
(0.1 0.0633613 0.0566765)
(0.1 0.0704676 0.0566765)
(0.1 0.0780219 0.0566765)
(0.1 0.0860524 0.0566765)
(0.1 0.0945892 0.0566765)
(0.1 0.103664 0.0566765)
(0.1 0.113311 0.0566765)
(0.1 0.123567 0.0566765)
(0.1 0.134469 0.0566765)
(0.1 0.146058 0.0566765)
(0.1 0.158378 0.0566765)
(0.1 0.171474 0.0566765)
(0.1 0.185397 0.0566765)
(0.1 0.200197 0.0566765)
(0.1 0.21593 0.0566765)
(0.1 0.232655 0.0566765)
(0.1 0.250434 0.0566765)
(0.1 0.269334 0.0566765)
(0.1 0.289426 0.0566765)
(0.1 0.310785 0.0566765)
(0.1 0.33349 0.0566765)
(0.1 0.357626 0.0566765)
(0.1 0.383284 0.0566765)
(0.1 0.41056 0.0566765)
(0.1 0.439555 0.0566765)
(0.1 0.470379 0.0566765)
(0.1 0.503146 0.0566765)
(0.1 0.537978 0.0566765)
(0.1 0.575007 0.0566765)
(0.1 0.614369 0.0566765)
(0.1 0.656214 0.0566765)
(0.1 0.700697 0.0566765)
(0.1 0.747984 0.0566765)
(0.1 0.798252 0.0566765)
(0.1 0.851689 0.0566765)
(0.1 0.908496 0.0566765)
(0.1 0.968883 0.0566765)
(0.1 0.00155583 0.0633613)
(0.1 0.00476557 0.0633613)
(0.1 0.00817767 0.0633613)
(0.1 0.0118049 0.0633613)
(0.1 0.0156608 0.0633613)
(0.1 0.0197598 0.0633613)
(0.1 0.0241172 0.0633613)
(0.1 0.0287493 0.0633613)
(0.1 0.0336735 0.0633613)
(0.1 0.0389081 0.0633613)
(0.1 0.0444727 0.0633613)
(0.1 0.0503881 0.0633613)
(0.1 0.0566765 0.0633613)
(0.1 0.0633613 0.0633613)
(0.1 0.0704676 0.0633613)
(0.1 0.0780219 0.0633613)
(0.1 0.0860524 0.0633613)
(0.1 0.0945892 0.0633613)
(0.1 0.103664 0.0633613)
(0.1 0.113311 0.0633613)
(0.1 0.123567 0.0633613)
(0.1 0.134469 0.0633613)
(0.1 0.146058 0.0633613)
(0.1 0.158378 0.0633613)
(0.1 0.171474 0.0633613)
(0.1 0.185397 0.0633613)
(0.1 0.200197 0.0633613)
(0.1 0.21593 0.0633613)
(0.1 0.232655 0.0633613)
(0.1 0.250434 0.0633613)
(0.1 0.269334 0.0633613)
(0.1 0.289426 0.0633613)
(0.1 0.310785 0.0633613)
(0.1 0.33349 0.0633613)
(0.1 0.357626 0.0633613)
(0.1 0.383284 0.0633613)
(0.1 0.41056 0.0633613)
(0.1 0.439555 0.0633613)
(0.1 0.470379 0.0633613)
(0.1 0.503146 0.0633613)
(0.1 0.537978 0.0633613)
(0.1 0.575007 0.0633613)
(0.1 0.614369 0.0633613)
(0.1 0.656214 0.0633613)
(0.1 0.700697 0.0633613)
(0.1 0.747984 0.0633613)
(0.1 0.798252 0.0633613)
(0.1 0.851689 0.0633613)
(0.1 0.908496 0.0633613)
(0.1 0.968883 0.0633613)
(0.1 0.00155583 0.0704676)
(0.1 0.00476557 0.0704676)
(0.1 0.00817767 0.0704676)
(0.1 0.0118049 0.0704676)
(0.1 0.0156608 0.0704676)
(0.1 0.0197598 0.0704676)
(0.1 0.0241172 0.0704676)
(0.1 0.0287493 0.0704676)
(0.1 0.0336735 0.0704676)
(0.1 0.0389081 0.0704676)
(0.1 0.0444727 0.0704676)
(0.1 0.0503881 0.0704676)
(0.1 0.0566765 0.0704676)
(0.1 0.0633613 0.0704676)
(0.1 0.0704676 0.0704676)
(0.1 0.0780219 0.0704676)
(0.1 0.0860524 0.0704676)
(0.1 0.0945892 0.0704676)
(0.1 0.103664 0.0704676)
(0.1 0.113311 0.0704676)
(0.1 0.123567 0.0704676)
(0.1 0.134469 0.0704676)
(0.1 0.146058 0.0704676)
(0.1 0.158378 0.0704676)
(0.1 0.171474 0.0704676)
(0.1 0.185397 0.0704676)
(0.1 0.200197 0.0704676)
(0.1 0.21593 0.0704676)
(0.1 0.232655 0.0704676)
(0.1 0.250434 0.0704676)
(0.1 0.269334 0.0704676)
(0.1 0.289426 0.0704676)
(0.1 0.310785 0.0704676)
(0.1 0.33349 0.0704676)
(0.1 0.357626 0.0704676)
(0.1 0.383284 0.0704676)
(0.1 0.41056 0.0704676)
(0.1 0.439555 0.0704676)
(0.1 0.470379 0.0704676)
(0.1 0.503146 0.0704676)
(0.1 0.537978 0.0704676)
(0.1 0.575007 0.0704676)
(0.1 0.614369 0.0704676)
(0.1 0.656214 0.0704676)
(0.1 0.700697 0.0704676)
(0.1 0.747984 0.0704676)
(0.1 0.798252 0.0704676)
(0.1 0.851689 0.0704676)
(0.1 0.908496 0.0704676)
(0.1 0.968883 0.0704676)
(0.1 0.00155583 0.0780219)
(0.1 0.00476557 0.0780219)
(0.1 0.00817767 0.0780219)
(0.1 0.0118049 0.0780219)
(0.1 0.0156608 0.0780219)
(0.1 0.0197598 0.0780219)
(0.1 0.0241172 0.0780219)
(0.1 0.0287493 0.0780219)
(0.1 0.0336735 0.0780219)
(0.1 0.0389081 0.0780219)
(0.1 0.0444727 0.0780219)
(0.1 0.0503881 0.0780219)
(0.1 0.0566765 0.0780219)
(0.1 0.0633613 0.0780219)
(0.1 0.0704676 0.0780219)
(0.1 0.0780219 0.0780219)
(0.1 0.0860524 0.0780219)
(0.1 0.0945892 0.0780219)
(0.1 0.103664 0.0780219)
(0.1 0.113311 0.0780219)
(0.1 0.123567 0.0780219)
(0.1 0.134469 0.0780219)
(0.1 0.146058 0.0780219)
(0.1 0.158378 0.0780219)
(0.1 0.171474 0.0780219)
(0.1 0.185397 0.0780219)
(0.1 0.200197 0.0780219)
(0.1 0.21593 0.0780219)
(0.1 0.232655 0.0780219)
(0.1 0.250434 0.0780219)
(0.1 0.269334 0.0780219)
(0.1 0.289426 0.0780219)
(0.1 0.310785 0.0780219)
(0.1 0.33349 0.0780219)
(0.1 0.357626 0.0780219)
(0.1 0.383284 0.0780219)
(0.1 0.41056 0.0780219)
(0.1 0.439555 0.0780219)
(0.1 0.470379 0.0780219)
(0.1 0.503146 0.0780219)
(0.1 0.537978 0.0780219)
(0.1 0.575007 0.0780219)
(0.1 0.614369 0.0780219)
(0.1 0.656214 0.0780219)
(0.1 0.700697 0.0780219)
(0.1 0.747984 0.0780219)
(0.1 0.798252 0.0780219)
(0.1 0.851689 0.0780219)
(0.1 0.908496 0.0780219)
(0.1 0.968883 0.0780219)
(0.1 0.00155583 0.0860524)
(0.1 0.00476557 0.0860524)
(0.1 0.00817767 0.0860524)
(0.1 0.0118049 0.0860524)
(0.1 0.0156608 0.0860524)
(0.1 0.0197598 0.0860524)
(0.1 0.0241172 0.0860524)
(0.1 0.0287493 0.0860524)
(0.1 0.0336735 0.0860524)
(0.1 0.0389081 0.0860524)
(0.1 0.0444727 0.0860524)
(0.1 0.0503881 0.0860524)
(0.1 0.0566765 0.0860524)
(0.1 0.0633613 0.0860524)
(0.1 0.0704676 0.0860524)
(0.1 0.0780219 0.0860524)
(0.1 0.0860524 0.0860524)
(0.1 0.0945892 0.0860524)
(0.1 0.103664 0.0860524)
(0.1 0.113311 0.0860524)
(0.1 0.123567 0.0860524)
(0.1 0.134469 0.0860524)
(0.1 0.146058 0.0860524)
(0.1 0.158378 0.0860524)
(0.1 0.171474 0.0860524)
(0.1 0.185397 0.0860524)
(0.1 0.200197 0.0860524)
(0.1 0.21593 0.0860524)
(0.1 0.232655 0.0860524)
(0.1 0.250434 0.0860524)
(0.1 0.269334 0.0860524)
(0.1 0.289426 0.0860524)
(0.1 0.310785 0.0860524)
(0.1 0.33349 0.0860524)
(0.1 0.357626 0.0860524)
(0.1 0.383284 0.0860524)
(0.1 0.41056 0.0860524)
(0.1 0.439555 0.0860524)
(0.1 0.470379 0.0860524)
(0.1 0.503146 0.0860524)
(0.1 0.537978 0.0860524)
(0.1 0.575007 0.0860524)
(0.1 0.614369 0.0860524)
(0.1 0.656214 0.0860524)
(0.1 0.700697 0.0860524)
(0.1 0.747984 0.0860524)
(0.1 0.798252 0.0860524)
(0.1 0.851689 0.0860524)
(0.1 0.908496 0.0860524)
(0.1 0.968883 0.0860524)
(0.1 0.00155583 0.0945892)
(0.1 0.00476557 0.0945892)
(0.1 0.00817767 0.0945892)
(0.1 0.0118049 0.0945892)
(0.1 0.0156608 0.0945892)
(0.1 0.0197598 0.0945892)
(0.1 0.0241172 0.0945892)
(0.1 0.0287493 0.0945892)
(0.1 0.0336735 0.0945892)
(0.1 0.0389081 0.0945892)
(0.1 0.0444727 0.0945892)
(0.1 0.0503881 0.0945892)
(0.1 0.0566765 0.0945892)
(0.1 0.0633613 0.0945892)
(0.1 0.0704676 0.0945892)
(0.1 0.0780219 0.0945892)
(0.1 0.0860524 0.0945892)
(0.1 0.0945892 0.0945892)
(0.1 0.103664 0.0945892)
(0.1 0.113311 0.0945892)
(0.1 0.123567 0.0945892)
(0.1 0.134469 0.0945892)
(0.1 0.146058 0.0945892)
(0.1 0.158378 0.0945892)
(0.1 0.171474 0.0945892)
(0.1 0.185397 0.0945892)
(0.1 0.200197 0.0945892)
(0.1 0.21593 0.0945892)
(0.1 0.232655 0.0945892)
(0.1 0.250434 0.0945892)
(0.1 0.269334 0.0945892)
(0.1 0.289426 0.0945892)
(0.1 0.310785 0.0945892)
(0.1 0.33349 0.0945892)
(0.1 0.357626 0.0945892)
(0.1 0.383284 0.0945892)
(0.1 0.41056 0.0945892)
(0.1 0.439555 0.0945892)
(0.1 0.470379 0.0945892)
(0.1 0.503146 0.0945892)
(0.1 0.537978 0.0945892)
(0.1 0.575007 0.0945892)
(0.1 0.614369 0.0945892)
(0.1 0.656214 0.0945892)
(0.1 0.700697 0.0945892)
(0.1 0.747984 0.0945892)
(0.1 0.798252 0.0945892)
(0.1 0.851689 0.0945892)
(0.1 0.908496 0.0945892)
(0.1 0.968883 0.0945892)
(0.1 0.00155583 0.103664)
(0.1 0.00476557 0.103664)
(0.1 0.00817767 0.103664)
(0.1 0.0118049 0.103664)
(0.1 0.0156608 0.103664)
(0.1 0.0197598 0.103664)
(0.1 0.0241172 0.103664)
(0.1 0.0287493 0.103664)
(0.1 0.0336735 0.103664)
(0.1 0.0389081 0.103664)
(0.1 0.0444727 0.103664)
(0.1 0.0503881 0.103664)
(0.1 0.0566765 0.103664)
(0.1 0.0633613 0.103664)
(0.1 0.0704676 0.103664)
(0.1 0.0780219 0.103664)
(0.1 0.0860524 0.103664)
(0.1 0.0945892 0.103664)
(0.1 0.103664 0.103664)
(0.1 0.113311 0.103664)
(0.1 0.123567 0.103664)
(0.1 0.134469 0.103664)
(0.1 0.146058 0.103664)
(0.1 0.158378 0.103664)
(0.1 0.171474 0.103664)
(0.1 0.185397 0.103664)
(0.1 0.200197 0.103664)
(0.1 0.21593 0.103664)
(0.1 0.232655 0.103664)
(0.1 0.250434 0.103664)
(0.1 0.269334 0.103664)
(0.1 0.289426 0.103664)
(0.1 0.310785 0.103664)
(0.1 0.33349 0.103664)
(0.1 0.357626 0.103664)
(0.1 0.383284 0.103664)
(0.1 0.41056 0.103664)
(0.1 0.439555 0.103664)
(0.1 0.470379 0.103664)
(0.1 0.503146 0.103664)
(0.1 0.537978 0.103664)
(0.1 0.575007 0.103664)
(0.1 0.614369 0.103664)
(0.1 0.656214 0.103664)
(0.1 0.700697 0.103664)
(0.1 0.747984 0.103664)
(0.1 0.798252 0.103664)
(0.1 0.851689 0.103664)
(0.1 0.908496 0.103664)
(0.1 0.968883 0.103664)
(0.1 0.00155583 0.113311)
(0.1 0.00476557 0.113311)
(0.1 0.00817767 0.113311)
(0.1 0.0118049 0.113311)
(0.1 0.0156608 0.113311)
(0.1 0.0197598 0.113311)
(0.1 0.0241172 0.113311)
(0.1 0.0287493 0.113311)
(0.1 0.0336735 0.113311)
(0.1 0.0389081 0.113311)
(0.1 0.0444727 0.113311)
(0.1 0.0503881 0.113311)
(0.1 0.0566765 0.113311)
(0.1 0.0633613 0.113311)
(0.1 0.0704676 0.113311)
(0.1 0.0780219 0.113311)
(0.1 0.0860524 0.113311)
(0.1 0.0945892 0.113311)
(0.1 0.103664 0.113311)
(0.1 0.113311 0.113311)
(0.1 0.123567 0.113311)
(0.1 0.134469 0.113311)
(0.1 0.146058 0.113311)
(0.1 0.158378 0.113311)
(0.1 0.171474 0.113311)
(0.1 0.185397 0.113311)
(0.1 0.200197 0.113311)
(0.1 0.21593 0.113311)
(0.1 0.232655 0.113311)
(0.1 0.250434 0.113311)
(0.1 0.269334 0.113311)
(0.1 0.289426 0.113311)
(0.1 0.310785 0.113311)
(0.1 0.33349 0.113311)
(0.1 0.357626 0.113311)
(0.1 0.383284 0.113311)
(0.1 0.41056 0.113311)
(0.1 0.439555 0.113311)
(0.1 0.470379 0.113311)
(0.1 0.503146 0.113311)
(0.1 0.537978 0.113311)
(0.1 0.575007 0.113311)
(0.1 0.614369 0.113311)
(0.1 0.656214 0.113311)
(0.1 0.700697 0.113311)
(0.1 0.747984 0.113311)
(0.1 0.798252 0.113311)
(0.1 0.851689 0.113311)
(0.1 0.908496 0.113311)
(0.1 0.968883 0.113311)
(0.1 0.00155583 0.123567)
(0.1 0.00476557 0.123567)
(0.1 0.00817767 0.123567)
(0.1 0.0118049 0.123567)
(0.1 0.0156608 0.123567)
(0.1 0.0197598 0.123567)
(0.1 0.0241172 0.123567)
(0.1 0.0287493 0.123567)
(0.1 0.0336735 0.123567)
(0.1 0.0389081 0.123567)
(0.1 0.0444727 0.123567)
(0.1 0.0503881 0.123567)
(0.1 0.0566765 0.123567)
(0.1 0.0633613 0.123567)
(0.1 0.0704676 0.123567)
(0.1 0.0780219 0.123567)
(0.1 0.0860524 0.123567)
(0.1 0.0945892 0.123567)
(0.1 0.103664 0.123567)
(0.1 0.113311 0.123567)
(0.1 0.123567 0.123567)
(0.1 0.134469 0.123567)
(0.1 0.146058 0.123567)
(0.1 0.158378 0.123567)
(0.1 0.171474 0.123567)
(0.1 0.185397 0.123567)
(0.1 0.200197 0.123567)
(0.1 0.21593 0.123567)
(0.1 0.232655 0.123567)
(0.1 0.250434 0.123567)
(0.1 0.269334 0.123567)
(0.1 0.289426 0.123567)
(0.1 0.310785 0.123567)
(0.1 0.33349 0.123567)
(0.1 0.357626 0.123567)
(0.1 0.383284 0.123567)
(0.1 0.41056 0.123567)
(0.1 0.439555 0.123567)
(0.1 0.470379 0.123567)
(0.1 0.503146 0.123567)
(0.1 0.537978 0.123567)
(0.1 0.575007 0.123567)
(0.1 0.614369 0.123567)
(0.1 0.656214 0.123567)
(0.1 0.700697 0.123567)
(0.1 0.747984 0.123567)
(0.1 0.798252 0.123567)
(0.1 0.851689 0.123567)
(0.1 0.908496 0.123567)
(0.1 0.968883 0.123567)
(0.1 0.00155583 0.134469)
(0.1 0.00476557 0.134469)
(0.1 0.00817767 0.134469)
(0.1 0.0118049 0.134469)
(0.1 0.0156608 0.134469)
(0.1 0.0197598 0.134469)
(0.1 0.0241172 0.134469)
(0.1 0.0287493 0.134469)
(0.1 0.0336735 0.134469)
(0.1 0.0389081 0.134469)
(0.1 0.0444727 0.134469)
(0.1 0.0503881 0.134469)
(0.1 0.0566765 0.134469)
(0.1 0.0633613 0.134469)
(0.1 0.0704676 0.134469)
(0.1 0.0780219 0.134469)
(0.1 0.0860524 0.134469)
(0.1 0.0945892 0.134469)
(0.1 0.103664 0.134469)
(0.1 0.113311 0.134469)
(0.1 0.123567 0.134469)
(0.1 0.134469 0.134469)
(0.1 0.146058 0.134469)
(0.1 0.158378 0.134469)
(0.1 0.171474 0.134469)
(0.1 0.185397 0.134469)
(0.1 0.200197 0.134469)
(0.1 0.21593 0.134469)
(0.1 0.232655 0.134469)
(0.1 0.250434 0.134469)
(0.1 0.269334 0.134469)
(0.1 0.289426 0.134469)
(0.1 0.310785 0.134469)
(0.1 0.33349 0.134469)
(0.1 0.357626 0.134469)
(0.1 0.383284 0.134469)
(0.1 0.41056 0.134469)
(0.1 0.439555 0.134469)
(0.1 0.470379 0.134469)
(0.1 0.503146 0.134469)
(0.1 0.537978 0.134469)
(0.1 0.575007 0.134469)
(0.1 0.614369 0.134469)
(0.1 0.656214 0.134469)
(0.1 0.700697 0.134469)
(0.1 0.747984 0.134469)
(0.1 0.798252 0.134469)
(0.1 0.851689 0.134469)
(0.1 0.908496 0.134469)
(0.1 0.968883 0.134469)
(0.1 0.00155583 0.146058)
(0.1 0.00476557 0.146058)
(0.1 0.00817767 0.146058)
(0.1 0.0118049 0.146058)
(0.1 0.0156608 0.146058)
(0.1 0.0197598 0.146058)
(0.1 0.0241172 0.146058)
(0.1 0.0287493 0.146058)
(0.1 0.0336735 0.146058)
(0.1 0.0389081 0.146058)
(0.1 0.0444727 0.146058)
(0.1 0.0503881 0.146058)
(0.1 0.0566765 0.146058)
(0.1 0.0633613 0.146058)
(0.1 0.0704676 0.146058)
(0.1 0.0780219 0.146058)
(0.1 0.0860524 0.146058)
(0.1 0.0945892 0.146058)
(0.1 0.103664 0.146058)
(0.1 0.113311 0.146058)
(0.1 0.123567 0.146058)
(0.1 0.134469 0.146058)
(0.1 0.146058 0.146058)
(0.1 0.158378 0.146058)
(0.1 0.171474 0.146058)
(0.1 0.185397 0.146058)
(0.1 0.200197 0.146058)
(0.1 0.21593 0.146058)
(0.1 0.232655 0.146058)
(0.1 0.250434 0.146058)
(0.1 0.269334 0.146058)
(0.1 0.289426 0.146058)
(0.1 0.310785 0.146058)
(0.1 0.33349 0.146058)
(0.1 0.357626 0.146058)
(0.1 0.383284 0.146058)
(0.1 0.41056 0.146058)
(0.1 0.439555 0.146058)
(0.1 0.470379 0.146058)
(0.1 0.503146 0.146058)
(0.1 0.537978 0.146058)
(0.1 0.575007 0.146058)
(0.1 0.614369 0.146058)
(0.1 0.656214 0.146058)
(0.1 0.700697 0.146058)
(0.1 0.747984 0.146058)
(0.1 0.798252 0.146058)
(0.1 0.851689 0.146058)
(0.1 0.908496 0.146058)
(0.1 0.968883 0.146058)
(0.1 0.00155583 0.158378)
(0.1 0.00476557 0.158378)
(0.1 0.00817767 0.158378)