/*--------------------------------*- C++ -*----------------------------------*\
| =========                 |                                                 |
| \\      /  F ield         | OpenFOAM: The Open Source CFD Toolbox           |
|  \\    /   O peration     | Version:  v1912                                 |
|   \\  /    A nd           | Website:  www.openfoam.com                      |
|    \\/     M anipulation  |                                                 |
\*---------------------------------------------------------------------------*/
FoamFile
{
    version     2.0;
    format      ascii;
    class       volScalarField;
    location    "10000";
    object      nut;
}
// * * * * * * * * * * * * * * * * * * * * * * * * * * * * * * * * * * * * * //

dimensions      [0 2 -1 0 0 0 0];


internalField   nonuniform List<scalar> 
2500
(
6.50421e-05
6.16571e-05
6.10326e-05
6.30583e-05
6.66731e-05
7.10653e-05
7.57207e-05
8.03452e-05
8.47846e-05
8.89668e-05
9.28661e-05
9.64818e-05
9.98266e-05
0.000102919
0.000105782
0.000108438
0.000110908
0.000113212
0.00011537
0.000117396
0.000119305
0.00012111
0.00012282
0.000124445
0.000125992
0.000127467
0.000128876
0.000130223
0.000131512
0.000132745
0.000133926
0.000135056
0.000136137
0.00013717
0.000138156
0.000139095
0.000139988
0.000140834
0.000141632
0.000142383
0.000143084
0.000143735
0.000144334
0.000144878
0.000145364
0.000145789
0.000146148
0.000146435
0.000146639
0.00014675
6.16571e-05
6.00451e-05
5.78045e-05
5.725e-05
5.85229e-05
6.10696e-05
6.4296e-05
6.77811e-05
7.12719e-05
7.46314e-05
7.77936e-05
8.07335e-05
8.34497e-05
8.59535e-05
8.82625e-05
9.03968e-05
9.23767e-05
9.42215e-05
9.59485e-05
9.75733e-05
9.9109e-05
0.000100567
0.000101957
0.000103286
0.000104562
0.00010579
0.000106973
0.000108117
0.000109224
0.000110296
0.000111335
0.000112342
0.000113319
0.000114264
0.000115179
0.000116063
0.000116915
0.000117733
0.000118516
0.000119262
0.000119968
0.00012063
0.000121246
0.000121812
0.000122322
0.000122772
0.000123155
0.000123461
0.000123681
0.0001238
6.10326e-05
5.78045e-05
5.57163e-05
5.52754e-05
5.63664e-05
5.87718e-05
6.20384e-05
6.57265e-05
6.95212e-05
7.32291e-05
7.6744e-05
8.00174e-05
8.30364e-05
8.58089e-05
8.83542e-05
9.06971e-05
9.28635e-05
9.48788e-05
9.67657e-05
9.85446e-05
0.000100233
0.000101845
0.000103392
0.000104886
0.000106334
0.000107742
0.000109117
0.000110461
0.00011178
0.000113074
0.000114346
0.000115596
0.000116826
0.000118033
0.000119218
0.000120379
0.000121512
0.000122615
0.000123684
0.000124714
0.0001257
0.000126636
0.000127514
0.000128327
0.000129067
0.000129722
0.000130283
0.000130733
0.000131058
0.000131234
6.30583e-05
5.725e-05
5.52754e-05
5.70154e-05
6.08399e-05
6.59196e-05
7.17481e-05
7.79e-05
8.40429e-05
8.9953e-05
9.55005e-05
0.000100625
0.000105316
0.000109589
0.000113482
0.000117037
0.000120301
0.000123317
0.000126127
0.000128764
0.00013126
0.00013364
0.000135925
0.000138132
0.000140275
0.000142365
0.000144413
0.000146424
0.000148406
0.000150361
0.000152293
0.000154204
0.000156093
0.00015796
0.000159802
0.000161617
0.000163399
0.000165144
0.000166844
0.000168491
0.000170075
0.000171584
0.000173007
0.000174329
0.000175535
0.000176608
0.000177526
0.000178266
0.000178799
0.000179089
6.66731e-05
5.85229e-05
5.63664e-05
6.08399e-05
6.94062e-05
7.99446e-05
9.12227e-05
0.000102545
0.000113479
0.00012376
0.000133243
0.000141875
0.000149665
0.000156665
0.00016295
0.000168607
0.000173722
0.000178381
0.00018266
0.000186625
0.000190334
0.000193834
0.000197167
0.000200364
0.000203454
0.000206457
0.000209392
0.000212273
0.000215112
0.000217916
0.000220692
0.000223443
0.000226173
0.000228879
0.00023156
0.00023421
0.000236824
0.000239393
0.000241906
0.000244349
0.000246707
0.000248963
0.000251095
0.000253083
0.000254902
0.000256522
0.000257912
0.000259034
0.000259843
0.000260282
7.10653e-05
6.10696e-05
5.87718e-05
6.59196e-05
7.99446e-05
9.77154e-05
0.000116885
0.000136063
0.000154459
0.000171627
0.00018734
0.000201518
0.000214182
0.000225419
0.000235358
0.00024415
0.000251948
0.000258903
0.000265153
0.000270821
0.000276014
0.000280822
0.000285322
0.000289578
0.000293641
0.000297556
0.000301356
0.000305071
0.000308723
0.000312329
0.000315904
0.000319457
0.000322993
0.000326515
0.00033002
0.000333505
0.000336959
0.000340372
0.000343729
0.00034701
0.000350193
0.000353252
0.000356158
0.000358877
0.000361372
0.000363603
0.000365522
0.000367075
0.000368195
0.000368804
7.57207e-05
6.4296e-05
6.20384e-05
7.17481e-05
9.12227e-05
0.000116885
0.00014539
0.000174436
0.000202627
0.000229151
0.000253561
0.000275653
0.000295387
0.000312836
0.000328153
0.000341537
0.00035321
0.000363402
0.000372333
0.000380208
0.000387211
0.000393505
0.000399228
0.000404498
0.000409416
0.000414064
0.00041851
0.000422811
0.000427012
0.000431151
0.000435256
0.000439349
0.000443444
0.000447549
0.000451667
0.000455795
0.000459923
0.000464036
0.000468116
0.000472138
0.00047607
0.000479877
0.000483517
0.000486945
0.000490107
0.000492947
0.000495399
0.000497388
0.000498827
0.000499611
8.03452e-05
6.77811e-05
6.57265e-05
7.79e-05
0.000102545
0.000136063
0.000174436
0.000214457
0.000253991
0.000291735
0.000326926
0.000359146
0.000388209
0.000414095
0.000436902
0.000456812
0.000474067
0.000488943
0.00050173
0.000512716
0.000522178
0.00053037
0.000537524
0.000543841
0.0005495
0.000554652
0.000559426
0.000563929
0.000568252
0.000572469
0.000576638
0.000580805
0.000585005
0.00058926
0.000593583
0.000597977
0.000602434
0.000606939
0.000611471
0.000615997
0.000620477
0.000624864
0.000629102
0.000633128
0.000636872
0.000640257
0.000643196
0.000645591
0.00064733
0.000648278
8.47846e-05
7.12719e-05
6.95212e-05
8.40429e-05
0.000113479
0.000154459
0.000202627
0.000253991
0.000305625
0.000355655
0.000402958
0.000446879
0.00048706
0.000523336
0.000555691
0.000584216
0.00060909
0.000630559
0.000648916
0.000664488
0.00067761
0.000688622
0.00069785
0.000705598
0.000712149
0.000717753
0.000722634
0.000726985
0.000730971
0.000734733
0.000738386
0.000742023
0.000745716
0.000749519
0.000753466
0.000757578
0.000761856
0.000766287
0.000770851
0.000775511
0.000780217
0.000784908
0.000789511
0.000793945
0.000798117
0.000801926
0.000805261
0.000807995
0.000809989
0.000811081
8.89668e-05
7.46314e-05
7.32291e-05
8.9953e-05
0.00012376
0.000171627
0.000229151
0.000291735
0.000355655
0.000418403
0.000478452
0.000534911
0.000587265
0.000635228
0.000678662
0.000717539
0.000751925
0.000781965
0.000807875
0.00082993
0.000848453
0.000863803
0.00087636
0.000886507
0.000894624
0.000901075
0.000906199
0.000910307
0.000913675
0.000916549
0.000919135
0.00092161
0.000924116
0.000926762
0.000929631
0.000932775
0.000936222
0.000939972
0.000944012
0.000948306
0.000952796
0.000957407
0.000962049
0.000966618
0.000970994
0.00097505
0.000978642
0.000981615
0.000983797
0.000984998
9.28661e-05
7.77936e-05
7.6744e-05
9.55005e-05
0.000133243
0.00018734
0.000253561
0.000326926
0.000402958
0.000478452
0.000551423
0.000620727
0.000685709
0.000745992
0.000801354
0.00085168
0.000896925
0.000937117
0.000972347
0.00100278
0.00102864
0.00105022
0.00106786
0.00108196
0.00109295
0.00110126
0.00110733
0.0011116
0.00111448
0.00111635
0.00111754
0.00111836
0.00111907
0.00111986
0.0011209
0.00112232
0.00112418
0.00112652
0.00112936
0.00113267
0.00113639
0.00114043
0.00114468
0.00114903
0.00115332
0.00115738
0.00116104
0.00116412
0.0011664
0.00116766
9.64818e-05
8.07335e-05
8.00174e-05
0.000100625
0.000141875
0.000201518
0.000275653
0.000359146
0.000446879
0.000534911
0.000620727
0.000702886
0.000780591
0.000853392
0.00092102
0.000983306
0.00104014
0.00109146
0.00113725
0.00117754
0.00121242
0.00124205
0.00126668
0.00128662
0.00130223
0.00131397
0.00132231
0.00132777
0.00133086
0.00133212
0.00133202
0.00133103
0.00132955
0.00132794
0.00132649
0.00132542
0.00132491
0.00132506
0.00132592
0.00132752
0.00132979
0.00133267
0.00133602
0.0013397
0.00134352
0.00134729
0.0013508
0.0013538
0.00135606
0.00135732
9.98266e-05
8.34497e-05
8.30364e-05
0.000105316
0.000149665
0.000214182
0.000295387
0.000388209
0.00048706
0.000587265
0.000685709
0.000780591
0.000870943
0.000956243
0.00103619
0.0011106
0.00117932
0.00124224
0.00129927
0.00135034
0.00139543
0.00143456
0.00146782
0.00149538
0.00151749
0.00153451
0.00154686
0.00155506
0.00155966
0.00156129
0.00156056
0.00155809
0.00155446
0.0015502
0.0015458
0.00154163
0.00153801
0.00153516
0.00153324
0.00153232
0.0015324
0.00153342
0.00153524
0.00153771
0.00154062
0.00154372
0.00154677
0.00154948
0.00155157
0.00155276
0.000102919
8.59535e-05
8.58089e-05
0.000109589
0.000156665
0.000225419
0.000312836
0.000414095
0.000523336
0.000635228
0.000745992
0.000853392
0.000956243
0.00105394
0.00114615
0.00123267
0.00131334
0.00138804
0.00145662
0.00151897
0.00157497
0.00162453
0.00166761
0.00170423
0.00173448
0.00175855
0.00177676
0.00178952
0.00179733
0.00180082
0.00180067
0.0017976
0.00179236
0.00178568
0.00177822
0.00177059
0.0017633
0.00175676
0.00175125
0.00174698
0.00174404
0.00174241
0.00174199
0.00174261
0.00174405
0.00174603
0.00174826
0.00175041
0.00175215
0.00175316
0.000105782
8.82625e-05
8.83542e-05
0.000113482
0.00016295
0.000235358
0.000328153
0.000436902
0.000555691
0.000678662
0.000801354
0.00092102
0.00103619
0.00114615
0.00125052
0.00134909
0.0014417
0.00152821
0.00160847
0.00168232
0.00174959
0.00181013
0.00186379
0.00191045
0.00195007
0.00198268
0.0020084
0.0020275
0.00204034
0.00204746
0.0020495
0.00204722
0.00204144
0.00203304
0.0020229
0.00201184
0.00200061
0.00198985
0.00198007
0.00197166
0.00196484
0.00195971
0.00195623
0.00195428
0.0019536
0.00195392
0.00195489
0.00195614
0.00195731
0.00195803
0.000108438
9.03968e-05
9.06971e-05
0.000117037
0.000168607
0.00024415
0.000341537
0.000456812
0.000584216
0.000717539
0.00085168
0.000983306
0.0011106
0.00123267
0.00134909
0.00145963
0.00156414
0.00166247
0.00175444
0.0018399
0.00191865
0.00199046
0.00205515
0.00211249
0.00216232
0.00220453
0.00223908
0.00226603
0.0022856
0.00229813
0.00230415
0.00230433
0.0022995
0.00229059
0.00227861
0.00226461
0.00224956
0.00223438
0.00221985
0.00220661
0.0021951
0.00218561
0.00217821
0.00217284
0.00216931
0.00216732
0.00216651
0.00216646
0.00216676
0.00216704
0.000110908
9.23767e-05
9.28635e-05
0.000120301
0.000173722
0.000251948
0.00035321
0.000474067
0.00060909
0.000751925
0.000896925
0.00104014
0.00117932
0.00131334
0.0014417
0.00156414
0.0016805
0.00179062
0.00189435
0.00199148
0.00208181
0.00216509
0.00224108
0.0023095
0.0023701
0.00242265
0.00246697
0.00250297
0.00253066
0.0025502
0.00256191
0.00256633
0.00256415
0.00255628
0.00254376
0.00252775
0.00250945
0.00249004
0.00247059
0.00245206
0.00243518
0.00242048
0.00240826
0.00239859
0.00239137
0.00238633
0.00238311
0.00238127
0.00238038
0.00238005
0.000113212
9.42215e-05
9.48788e-05
0.000123317
0.000178381
0.000258903
0.000363402
0.000488943
0.000630559
0.000781965
0.000937117
0.00109146
0.00124224
0.00138804
0.00152821
0.00166247
0.00179062
0.00191253
0.00202801
0.00213688
0.00223889
0.00233378
0.00242126
0.00250103
0.00257277
0.00263617
0.00269094
0.00273685
0.00277374
0.00280159
0.00282051
0.00283081
0.00283302
0.00282789
0.00281641
0.00279974
0.0027792
0.00275617
0.00273203
0.00270804
0.00268532
0.00266471
0.0026468
0.00263191
0.00262008
0.00261116
0.00260482
0.00260062
0.00259813
0.00259697
0.00011537
9.59485e-05
9.67657e-05
0.000126127
0.00018266
0.000265153
0.000372333
0.00050173
0.000648916
0.000807875
0.000972347
0.00113725
0.00129927
0.00145662
0.00160847
0.00175444
0.00189435
0.00202801
0.00215528
0.00227592
0.00238969
0.00249631
0.00259546
0.0026868
0.00276996
0.00284458
0.00291028
0.00296673
0.00301363
0.0030508
0.00307814
0.00309576
0.00310395
0.00310327
0.00309451
0.00307876
0.00305734
0.00303173
0.00300353
0.00297431
0.00294557
0.00291854
0.00289421
0.0028732
0.00285583
0.00284211
0.00283183
0.00282462
0.00282005
0.0028178
0.000117396
9.75733e-05
9.85446e-05
0.000128764
0.000186625
0.000270821
0.000380208
0.000512716
0.000664488
0.00082993
0.00100278
0.00117754
0.00135034
0.00151897
0.00168232
0.0018399
0.00199148
0.00213688
0.00227592
0.00240838
0.00253399
0.00265246
0.00276343
0.00286652
0.00296134
0.00304747
0.00312447
0.00319194
0.00324946
0.00329672
0.00333345
0.00335955
0.0033751
0.00338039
0.00337602
0.00336287
0.00334214
0.0033153
0.00328407
0.00325026
0.00321569
0.00318204
0.00315073
0.00312281
0.00309897
0.00307951
0.00306441
0.00305344
0.00304625
0.00304262
0.000119305
9.9109e-05
0.000100233
0.00013126
0.000190334
0.000276014
0.000387211
0.000522178
0.00067761
0.000848453
0.00102864
0.00121242
0.00139543
0.00157497
0.00174959
0.00191865
0.00208181
0.00223889
0.00238969
0.00253399
0.00267151
0.00280192
0.00292484
0.00303987
0.00314657
0.00324447
0.0033331
0.00341196
0.00348058
0.00353852
0.00358539
0.0036209
0.00364493
0.00365754
0.00365905
0.00365012
0.00363172
0.00360522
0.0035723
0.0035349
0.00349509
0.00345496
0.0034164
0.00338096
0.00334982
0.00332368
0.00330283
0.00328729
0.00327688
0.00327152
0.00012111
0.000100567
0.000101845
0.00013364
0.000193834
0.000280822
0.000393505
0.00053037
0.000688622
0.000863803
0.00105022
0.00124205
0.00143456
0.00162453
0.00181013
0.00199046
0.00216509
0.00233378
0.00249631
0.00265246
0.00280192
0.00294435
0.00307935
0.00320648
0.00332526
0.00343517
0.0035357
0.0036263
0.00370642
0.00377552
0.00383312
0.00387879
0.0039122
0.00393322
0.00394192
0.00393867
0.00392421
0.00389967
0.00386659
0.00382689
0.00378281
0.00373674
0.00369099
0.0036477
0.00360858
0.00357489
0.00354738
0.00352641
0.00351211
0.00350466
0.00012282
0.000101957
0.000103392
0.000135925
0.000197167
0.000285322
0.000399228
0.000537524
0.00069785
0.00087636
0.00106786
0.00126668
0.00146782
0.00166761
0.00186379
0.00205515
0.00224108
0.00242126
0.00259546
0.00276343
0.00292484
0.00307935
0.00322653
0.0033659
0.00349693
0.00361909
0.00373178
0.00383442
0.00392639
0.00400708
0.0040759
0.00413232
0.00417586
0.00420619
0.00422316
0.00422689
0.00421781
0.00419679
0.00416514
0.00412466
0.00407756
0.00402643
0.00397396
0.0039228
0.00387529
0.00383334
0.0037983
0.00377106
0.00375218
0.00374224
0.000124445
0.000103286
0.000104886
0.000138132
0.000200364
0.000289578
0.000404498
0.000543841
0.000705598
0.000886507
0.00108196
0.00128662
0.00149538
0.00170423
0.00191045
0.00211249
0.0023095
0.00250103
0.0026868
0.00286652
0.00303987
0.00320648
0.0033659
0.00351761
0.00366106
0.00379565
0.00392075
0.00403571
0.00413986
0.00423251
0.004313
0.00438068
0.00443496
0.00447534
0.00450149
0.00451326
0.00451085
0.0044948
0.00446614
0.00442643
0.00437778
0.00432279
0.00426441
0.00420574
0.00414975
0.00409906
0.00405577
0.00402147
0.00399733
0.00398449
0.000125992
0.000104562
0.000106334
0.000140275
0.000203454
0.000293641
0.000409416
0.0005495
0.000712149
0.000894624
0.00109295
0.00130223
0.00151749
0.00173448
0.00195007
0.00216232
0.0023701
0.00257277
0.00276996
0.00296134
0.00314657
0.00332526
0.00349693
0.00366106
0.00381704
0.00396424
0.00410196
0.00422951
0.00434613
0.00445109
0.00454363
0.00462303
0.00468857
0.00473964
0.00477572
0.00479646
0.00480179
0.00479199
0.00476777
0.00473039
0.00468173
0.0046243
0.00456115
0.00449571
0.0044315
0.0043719
0.00431987
0.00427785
0.00424784
0.00423171
0.000127467
0.00010579
0.000107742
0.000142365
0.000206457
0.000297556
0.000414064
0.000554652
0.000717753
0.000901075
0.00110126
0.00131397
0.00153451
0.00175855
0.00198268
0.00220453
0.00242265
0.00263617
0.00284458
0.00304747
0.00324447
0.00343517
0.00361909
0.00379565
0.00396424
0.00412416
0.00427469
0.00441504
0.00454442
0.004662
0.00476697
0.00485849
0.00493578
0.00499808
0.00504473
0.00507522
0.00508924
0.0050868
0.0050683
0.00503471
0.0049876
0.00492927
0.00486273
0.00479158
0.00471981
0.00465151
0.00459054
0.00454035
0.00450397
0.00448422
0.000128876
0.000106973
0.000109117
0.000144413
0.000209392
0.000301356
0.00041851
0.000559426
0.000722634
0.000906199
0.00110733
0.00132231
0.00154686
0.00177676
0.0020084
0.00223908
0.00246697
0.00269094
0.00291028
0.00312447
0.0033331
0.0035357
0.00373178
0.00392075
0.00410196
0.00427469
0.00443814
0.00459148
0.00473384
0.00486434
0.00498207
0.00508611
0.00517557
0.0052496
0.00530741
0.00534832
0.00537184
0.00537772
0.00536611
0.00533763
0.00529356
0.0052359
0.0051675
0.005092
0.0050137
0.00493729
0.00486756
0.00480906
0.004766
0.00474239
0.000130223
0.000108117
0.000110461
0.000146424
0.000212273
0.000305071
0.000422811
0.000563929
0.000726985
0.000910307
0.0011116
0.00132777
0.00155506
0.00178952
0.0020275
0.00226603
0.00250297
0.00273685
0.00296673
0.00319194
0.00341196
0.0036263
0.00383442
0.00403571
0.00422951
0.00441504
0.00459148
0.00475794
0.00491348
0.00505713
0.00518792
0.00530483
0.00540687
0.0054931
0.00556259
0.00561453
0.00564826
0.00566332
0.0056596
0.00563745
0.0055978
0.00554236
0.00547373
0.00539544
0.00531195
0.00522846
0.00515056
0.00508397
0.00503421
0.00500664
0.000131512
0.000109224
0.00011178
0.000148406
0.000215112
0.000308723
0.000427012
0.000568252
0.000730971
0.000913675
0.00111448
0.00133086
0.00155966
0.00179733
0.00204034
0.0022856
0.00253066
0.00277374
0.00301363
0.00324946
0.00348058
0.00370642
0.00392639
0.00413986
0.00434613
0.00454442
0.00473384
0.00491348
0.00508232
0.00523932
0.00538341
0.00551351
0.00562851
0.00572736
0.00580903
0.00587257
0.00591716
0.00594217
0.00594726
0.00593253
0.0058986
0.00584687
0.00577963
0.00570026
0.00561323
0.00552405
0.00543905
0.00536501
0.00530887
0.00527744
0.000132745
0.000110296
0.000113074
0.000150361
0.000217916
0.000312329
0.000431151
0.000572469
0.000734733
0.000916549
0.00111635
0.00133212
0.00156129
0.00180082
0.00204746
0.00229813
0.0025502
0.00280159
0.0030508
0.00329672
0.00353852
0.00377552
0.00400708
0.00423251
0.00445109
0.004662
0.00486434
0.00505713
0.00523932
0.00540979
0.00556739
0.00571093
0.00583922
0.00595109
0.0060454
0.00612106
0.00617713
0.00621281
0.00622757
0.00622126
0.00619427
0.00614767
0.00608349
0.00600484
0.00591613
0.00582304
0.00573245
0.00565213
0.00559034
0.0055554
0.000133926
0.000111335
0.000114346
0.000152293
0.000220692
0.000315904
0.000435256
0.000576638
0.000738386
0.000919135
0.00111754
0.00133202
0.00156056
0.00180067
0.0020495
0.00230415
0.00256191
0.00282051
0.00307814
0.00333345
0.00358539
0.00383312
0.0040759
0.004313
0.00454363
0.00476697
0.00498207
0.00518792
0.00538341
0.00556739
0.0057386
0.00589578
0.00603764
0.00616288
0.00627026
0.00635856
0.0064267
0.00647374
0.00649898
0.00650207
0.00648318
0.00644312
0.00638365
0.00630762
0.00621931
0.00612444
0.00603028
0.00594538
0.00587916
0.00584137
0.000135056
0.000112342
0.000115596
0.000154204
0.000223443
0.000319457
0.000439349
0.000580805
0.000742023
0.00092161
0.00111836
0.00133103
0.00155809
0.0017976
0.00204722
0.00230433
0.00256633
0.00283081
0.00309576
0.00335955
0.0036209
0.00387879
0.00413232
0.00438068
0.00462303
0.00485849
0.00508611
0.00530483
0.00551351
0.00571093
0.00589578
0.00606671
0.00622233
0.00636125
0.00648208
0.00658351
0.0066643
0.00672338
0.00675991
0.00677337
0.00676374
0.00673164
0.00667858
0.00660721
0.0065216
0.00642748
0.0063323
0.00624513
0.00617631
0.00613668
0.000136137
0.000113319
0.000116826
0.000156093
0.000226173
0.000322993
0.000443444
0.000585005
0.000745716
0.000924116
0.00111907
0.00132955
0.00155446
0.00179236
0.00204144
0.0022995
0.00256415
0.00283302
0.00310395
0.0033751
0.00364493
0.0039122
0.00417586
0.00443496
0.00468857
0.00493578
0.00517557
0.00540687
0.00562851
0.00583922
0.00603764
0.00622233
0.00639184
0.00654464
0.00667926
0.00679425
0.00688826
0.00696007
0.00700872
0.00703357
0.00703443
0.00701177
0.00696695
0.00690246
0.00682221
0.00673183
0.00663881
0.00655247
0.00648358
0.0064436
0.00013717
0.000114264
0.000118033
0.00015796
0.000228879
0.000326515
0.000447549
0.00058926
0.000749519
0.000926762
0.00111986
0.00132794
0.0015502
0.00178568
0.00203304
0.00229059
0.00255628
0.00282789
0.00310327
0.00338039
0.00365754
0.00393322
0.00420619
0.00447534
0.00473964
0.00499808
0.0052496
0.0054931
0.00572736
0.00595109
0.00616288
0.00636125
0.00654464
0.00671147
0.00686014
0.00698909
0.00709685
0.0071821
0.00724375
0.00728105
0.00729374
0.0072822
0.00724771
0.00719267
0.0071209
0.00703794
0.00695117
0.00686974
0.00680429
0.0067661
0.000138156
0.000115179
0.000119218
0.000159802
0.00023156
0.00033002
0.000451667
0.000593583
0.000753466
0.000929631
0.0011209
0.00132649
0.0015458
0.00177822
0.0020229
0.00227861
0.00254376
0.00281641
0.00309451
0.00337602
0.00365905
0.00394192
0.00422316
0.00450149
0.00477572
0.00504473
0.00530741
0.00556259
0.00580903
0.0060454
0.00627026
0.00648208
0.00667926
0.00686014
0.00702303
0.00716627
0.0072883
0.0073877
0.00746329
0.00751426
0.00754032
0.00754185
0.00752016
0.00747771
0.00741836
0.00734756
0.00727243
0.00720153
0.00714446
0.0071111
0.000139095
0.000116063
0.000120379
0.000161617
0.00023421
0.000333505
0.000455795
0.000597977
0.000757578
0.000932775
0.00112232
0.00132542
0.00154163
0.00177059
0.00201184
0.00226461
0.00252775
0.00279974
0.00307876
0.00336287
0.00365012
0.00393867
0.00422689
0.00451326
0.00479646
0.00507522
0.00534832
0.00561453
0.00587257
0.00612106
0.00635856
0.00658351
0.00679425
0.00698909
0.00716627
0.00732408
0.00746086
0.00757514
0.0076657
0.00773174
0.007773
0.00779
0.00778425
0.00775847
0.00771674
0.00766453
0.00760855
0.00755613
0.00751456
0.00749052
0.000139988
0.000116915
0.000121512
0.000163399
0.000236824
0.000336959
0.000459923
0.000602434
0.000761856
0.000936222
0.00112418
0.00132491
0.00153801
0.0017633
0.00200061
0.00224956
0.00250945
0.0027792
0.00305734
0.00334214
0.00363172
0.00392421
0.00421781
0.00451085
0.00480179
0.00508924
0.00537184
0.00564826
0.00591716
0.00617713
0.0064267
0.0066643
0.00688826
0.00709685
0.0072883
0.00746086
0.00761285
0.00774279
0.00784949
0.00793224
0.00799098
0.00802655
0.00804091
0.00803734
0.00802049
0.00799602
0.00797004
0.00794777
0.00793232
0.0079243
0.000140834
0.000117733
0.000122615
0.000165144
0.000239393
0.000340372
0.000464036
0.000606939
0.000766287
0.000939972
0.00112652
0.00132506
0.00153516
0.00175676
0.00198985
0.00223438
0.00249004
0.00275617
0.00303173
0.0033153
0.00360522
0.00389967
0.00419679
0.0044948
0.00479199
0.0050868
0.00537772
0.00566332
0.00594217
0.00621281
0.00647374
0.00672338
0.00696007
0.0071821
0.0073877
0.00757514
0.00774279
0.00788924
0.00801345
0.00811496
0.00819412
0.00825239
0.00829261
0.00831911
0.00833761
0.00835431
0.00837447
0.00839987
0.00842654
0.00844474
0.000141632
0.000118516
0.000123684
0.000166844
0.000241906
0.000343729
0.000468116
0.000611471
0.000770851
0.000944012
0.00112936
0.00132592
0.00153324
0.00175125
0.00198007
0.00221985
0.00247059
0.00273203
0.00300353
0.00328407
0.0035723
0.00386659
0.00416514
0.00446614
0.00476777
0.0050683
0.00536611
0.0056596
0.00594726
0.00622757
0.00649898
0.00675991
0.00700872
0.00724375
0.00746329
0.0076657
0.00784949
0.00801345
0.00815686
0.00827976
0.00838327
0.00846996
0.0085442
0.00861218
0.00868148
0.00875941
0.00884994
0.00894938
0.00904229
0.00910204
0.000142383
0.000119262
0.000124714
0.000168491
0.000244349
0.00034701
0.000472138
0.000615997
0.000775511
0.000948306
0.00113267
0.00132752
0.00153232
0.00174698
0.00197166
0.00220661
0.00245206
0.00270804
0.00297431
0.00325026
0.0035349
0.00382689
0.00412466
0.00442643
0.00473039
0.00503471
0.00533763
0.00563745
0.00593253
0.00622126
0.00650207
0.00677337
0.00703357
0.00728105
0.00751426
0.00773174
0.00793224
0.00811496
0.00827976
0.00842757
0.00856084
0.00868404
0.00880408
0.00893029
0.00907332
0.00924232
0.00943935
0.00965202
0.0098468
0.00997065
0.000143084
0.000119968
0.0001257
0.000170075
0.000246707
0.000350193
0.00047607
0.000620477
0.000780217
0.000952796
0.00113639
0.00132979
0.0015324
0.00174404
0.00196484
0.0021951
0.00243518
0.00268532
0.00294557
0.00321569
0.00349509
0.00378281
0.00407756
0.00437778
0.00468173
0.0049876
0.00529356
0.0055978
0.0058986
0.00619427
0.00648318
0.00676374
0.00703443
0.00729374
0.00754032
0.007773
0.00799098
0.00819412
0.00838327
0.00856084
0.00873146
0.00890272
0.00908565
0.00929455
0.00954496
0.00984873
0.0102048
0.0105872
0.0109346
0.0111544
0.000143735
0.00012063
0.000126636
0.000171584
0.000248963
0.000353252
0.000479877
0.000624864
0.000784908
0.000957407
0.00114043
0.00133267
0.00153342
0.00174241
0.00195971
0.00218561
0.00242048
0.00266471
0.00291854
0.00318204
0.00345496
0.00373674
0.00402643
0.00432279
0.0046243
0.00492927
0.0052359
0.00554236
0.00584687
0.00614767
0.00644312
0.00673164
0.00701177
0.0072822
0.00754185
0.00779
0.00802655
0.00825239
0.00846996
0.00868404
0.00890272
0.00913846
0.00940874
0.00973541
0.0101413
0.0106418
0.0112305
0.0118602
0.0124288
0.0127867
0.000144334
0.000121246
0.000127514
0.000173007
0.000251095
0.000356158
0.000483517
0.000629102
0.000789511
0.000962049
0.00114468
0.00133602
0.00153524
0.00174199
0.00195623
0.00217821
0.00240826
0.0026468
0.00289421
0.00315073
0.0034164
0.00369099
0.00397396
0.00426441
0.00456115
0.00486273
0.0051675
0.00547373
0.00577963
0.00608349
0.00638365
0.00667858
0.00696695
0.00724771
0.00752016
0.00778425
0.00804091
0.00829261
0.0085442
0.00880408
0.00908565
0.00940874
0.00980035
0.0102933
0.0109205
0.0117013
0.0126196
0.0135966
0.0144726
0.0150208
0.000144878
0.000121812
0.000128327
0.000174329
0.000253083
0.000358877
0.000486945
0.000633128
0.000793945
0.000966618
0.00114903
0.0013397
0.00153771
0.00174261
0.00195428
0.00217284
0.00239859
0.00263191
0.0028732
0.00312281
0.00338096
0.0036477
0.0039228
0.00420574
0.00449571
0.00479158
0.005092
0.00539544
0.00570026
0.00600484
0.00630762
0.00660721
0.00690246
0.00719267
0.00747771
0.00775847
0.00803734
0.00831911
0.00861218
0.00893029
0.00929455
0.00973541
0.0102933
0.0110161
0.0119491
0.0131147
0.0144805
0.0159227
0.0172051
0.0180032
0.000145364
0.000122322
0.000129067
0.000175535
0.000254902
0.000361372
0.000490107
0.000636872
0.000798117
0.000970994
0.00115332
0.00134352
0.00154062
0.00174405
0.0019536
0.00216931
0.00239137
0.00262008
0.00285583
0.00309897
0.00334982
0.00360858
0.00387529
0.00414975
0.0044315
0.00471981
0.0050137
0.00531195
0.00561323
0.00591613
0.00621931
0.0065216
0.00682221
0.0071209
0.00741836
0.00771674
0.00802049
0.00833761
0.00868148
0.00907332
0.00954496
0.0101413
0.0109205
0.0119491
0.0132863
0.0149544
0.0168956
0.0189279
0.0207232
0.0218368
0.000145789
0.000122772
0.000129722
0.000176608
0.000256522
0.000363603
0.000492947
0.000640257
0.000801926
0.00097505
0.00115738
0.00134729
0.00154372
0.00174603
0.00195392
0.00216732
0.00238633
0.00261116
0.00284211
0.00307951
0.00332368
0.00357489
0.00383334
0.00409906
0.0043719
0.00465151
0.00493729
0.00522846
0.00552405
0.00582304
0.00612444
0.00642748
0.00673183
0.00703794
0.00734756
0.00766453
0.00799602
0.00835431
0.00875941
0.00924232
0.00984873
0.0106418
0.0117013
0.0131147
0.0149544
0.0172373
0.0198733
0.0226168
0.0250393
0.0265484
0.000146148
0.000123155
0.000130283
0.000177526
0.000257912
0.000365522
0.000495399
0.000643196
0.000805261
0.000978642
0.00116104
0.0013508
0.00154677
0.00174826
0.00195489
0.00216651
0.00238311
0.00260482
0.00283183
0.00306441
0.00330283
0.00354738
0.0037983
0.00405577
0.00431987
0.00459054
0.00486756
0.00515056
0.00543905
0.00573245
0.00603028
0.0063323
0.00663881
0.00695117
0.00727243
0.00760855
0.00797004
0.00837447
0.00884994
0.00943935
0.0102048
0.0112305
0.0126196
0.0144805
0.0168956
0.0198733
0.0232945
0.0268627
0.0300545
0.0320836
0.000146435
0.000123461
0.000130733
0.000178266
0.000259034
0.000367075
0.000497388
0.000645591
0.000807995
0.000981615
0.00116412
0.0013538
0.00154948
0.00175041
0.00195614
0.00216646
0.00238127
0.00260062
0.00282462
0.00305344
0.00328729
0.00352641
0.00377106
0.00402147
0.00427785
0.00454035
0.00480906
0.00508397
0.00536501
0.00565213
0.00594538
0.00624513
0.00655247
0.00686974
0.00720153
0.00755613
0.00794777
0.00839987
0.00894938
0.00965202
0.0105872
0.0118602
0.0135966
0.0159227
0.0189279
0.0226168
0.0268627
0.0313596
0.0355281
0.0383229
0.000146639
0.000123681
0.000131058
0.000178799
0.000259843
0.000368195
0.000498827
0.00064733
0.000809989
0.000983797
0.0011664
0.00135606
0.00155157
0.00175215
0.00195731
0.00216676
0.00238038
0.00259813
0.00282005
0.00304625
0.00327688
0.00351211
0.00375218
0.00399733
0.00424784
0.00450397
0.004766
0.00503421
0.00530887
0.00559034
0.00587916
0.00617631
0.00648358
0.00680429
0.00714446
0.00751456
0.00793232
0.00842654
0.00904229
0.0098468
0.0109346
0.0124288
0.0144726
0.0172051
0.0207232
0.0250393
0.0300545
0.0355281
0.0409541
0.0450629
0.00014675
0.0001238
0.000131234
0.000179089
0.000260282
0.000368804
0.000499611
0.000648278
0.000811081
0.000984998
0.00116766
0.00135732
0.00155276
0.00175316
0.00195803
0.00216704
0.00238005
0.00259697
0.0028178
0.00304262
0.00327152
0.00350466
0.00374224
0.00398449
0.00423171
0.00448422
0.00474239
0.00500664
0.00527744
0.0055554
0.00584137
0.00613668
0.0064436
0.0067661
0.0071111
0.00749052
0.0079243
0.00844474
0.00910204
0.00997065
0.0111544
0.0127867
0.0150208
0.0180032
0.0218368
0.0265484
0.0320836
0.0383229
0.0450629
0.0516237
)
;

boundaryField
{
    bottomWall
    {
        type            nutkWallFunction;
        Cmu             0.09;
        kappa           0.41;
        E               9.8;
        value           uniform 0;
    }
    leftWall
    {
        type            nutkWallFunction;
        Cmu             0.09;
        kappa           0.41;
        E               9.8;
        value           uniform 0;
    }
    topSym
    {
        type            symmetryPlane;
    }
    rightSym
    {
        type            symmetryPlane;
    }
    inlet
    {
        type            cyclic;
    }
    outlet
    {
        type            cyclic;
    }
}


// ************************************************************************* //
