/*--------------------------------*- C++ -*----------------------------------*\
| =========                 |                                                 |
| \\      /  F ield         | OpenFOAM: The Open Source CFD Toolbox           |
|  \\    /   O peration     | Version:  v1912                                 |
|   \\  /    A nd           | Website:  www.openfoam.com                      |
|    \\/     M anipulation  |                                                 |
\*---------------------------------------------------------------------------*/
FoamFile
{
    version     2.0;
    format      ascii;
    class       volScalarField;
    location    "10000";
    object      p;
}
// * * * * * * * * * * * * * * * * * * * * * * * * * * * * * * * * * * * * * //

dimensions      [0 2 -2 0 0 0 0];


internalField   nonuniform List<scalar> 
2500
(
2.93804e-13
7.23831e-08
2.70177e-07
6.05948e-07
1.14407e-06
2.00986e-06
3.35768e-06
5.32432e-06
7.9839e-06
1.13303e-05
1.52851e-05
1.972e-05
2.44833e-05
2.94219e-05
3.43974e-05
3.92936e-05
4.4019e-05
4.85046e-05
5.27004e-05
5.65698e-05
6.00852e-05
6.32236e-05
6.59624e-05
6.82771e-05
7.01391e-05
7.15141e-05
7.23619e-05
7.26365e-05
7.22865e-05
7.12566e-05
6.94892e-05
6.69266e-05
6.35143e-05
5.92041e-05
5.39586e-05
4.7756e-05
4.05956e-05
3.25041e-05
2.35385e-05
1.37916e-05
3.40588e-06
-7.43157e-06
-1.84748e-05
-2.94405e-05
-3.99815e-05
-4.97509e-05
-5.8333e-05
-6.53894e-05
-7.04673e-05
-7.32546e-05
7.23831e-08
9.91655e-08
2.70623e-07
5.73539e-07
1.05086e-06
1.81891e-06
3.02753e-06
4.81068e-06
7.24487e-06
1.03345e-05
1.40173e-05
1.81815e-05
2.26874e-05
2.73891e-05
3.215e-05
3.68523e-05
4.14012e-05
4.5724e-05
4.97672e-05
5.34919e-05
5.68689e-05
5.98743e-05
6.24858e-05
6.4679e-05
6.64261e-05
6.76935e-05
6.84421e-05
6.86268e-05
6.81969e-05
6.70979e-05
6.52729e-05
6.26646e-05
5.92188e-05
5.48877e-05
4.96336e-05
4.34346e-05
3.62895e-05
2.82245e-05
1.92955e-05
9.59408e-06
-7.38837e-07
-1.15181e-05
-2.24998e-05
-3.34031e-05
-4.38834e-05
-5.35963e-05
-6.21284e-05
-6.91435e-05
-7.41907e-05
-7.69883e-05
2.70177e-07
2.70623e-07
5.04891e-07
9.42124e-07
1.62356e-06
2.67887e-06
4.28461e-06
6.60419e-06
9.73415e-06
1.36916e-05
1.84225e-05
2.38185e-05
2.97374e-05
3.60252e-05
4.25327e-05
4.91273e-05
5.56984e-05
6.21589e-05
6.84425e-05
7.44995e-05
8.02918e-05
8.57883e-05
9.09605e-05
9.57789e-05
0.000100211
0.000104218
0.000107756
0.000110775
0.000113219
0.000115028
0.000116137
0.000116481
0.000115999
0.000114632
0.000112333
0.000109069
0.000104824
9.96106e-05
9.34699e-05
8.64761e-05
7.87517e-05
7.04616e-05
6.18278e-05
5.31077e-05
4.46196e-05
3.66787e-05
2.96646e-05
2.38739e-05
1.97089e-05
1.7377e-05
6.05948e-07
5.73539e-07
9.42124e-07
1.73918e-06
3.11277e-06
5.28726e-06
8.50161e-06
1.2964e-05
1.87898e-05
2.59888e-05
3.44801e-05
4.41166e-05
5.47121e-05
6.60661e-05
7.79834e-05
9.02871e-05
0.000102826
0.000115475
0.000128134
0.000140727
0.000153189
0.000165469
0.00017752
0.000189295
0.000200747
0.000211823
0.000222467
0.000232614
0.000242195
0.000251134
0.000259353
0.000266771
0.000273308
0.000278887
0.00028344
0.00028691
0.000289258
0.00029047
0.000290556
0.000289561
0.000287571
0.000284716
0.000281176
0.000277165
0.000272954
0.0002688
0.00026502
0.00026183
0.000259534
0.000258213
1.14407e-06
1.05086e-06
1.62356e-06
3.11277e-06
6.07022e-06
1.10664e-05
1.8411e-05
2.81864e-05
4.03367e-05
5.47212e-05
7.11322e-05
8.9314e-05
0.000108989
0.000129877
0.000151713
0.000174256
0.000197292
0.000220641
0.000244149
0.000267689
0.000291155
0.000314456
0.000337511
0.000360246
0.000382588
0.000404463
0.000425794
0.000446501
0.000466496
0.000485691
0.00050399
0.000521298
0.000537519
0.000552558
0.00056633
0.000578756
0.000589776
0.00059935
0.000607462
0.000614126
0.000619399
0.000623372
0.000626188
0.000628015
0.000629073
0.000629562
0.000629728
0.000629698
0.000629667
0.000629596
2.00986e-06
1.81891e-06
2.67887e-06
5.28726e-06
1.10664e-05
2.13794e-05
3.65436e-05
5.59684e-05
7.8858e-05
0.000104589
0.000132696
0.000162799
0.000194562
0.000227685
0.00026189
0.000296918
0.000332529
0.000368503
0.000404639
0.000440758
0.000476703
0.000512332
0.000547519
0.00058215
0.000616119
0.000649327
0.000681675
0.000713067
0.000743407
0.000772596
0.000800536
0.000827128
0.000852274
0.000875879
0.000897856
0.000918126
0.000936622
0.000953299
0.000968137
0.000981141
0.000992355
0.00100186
0.00100977
0.00101623
0.00102144
0.00102557
0.0010288
0.00103122
0.00103293
0.00103383
3.35768e-06
3.02753e-06
4.28461e-06
8.50161e-06
1.8411e-05
3.65436e-05
6.2998e-05
9.56799e-05
0.000132252
0.000171238
0.000211893
0.000253837
0.000296855
0.0003408
0.000385541
0.000430935
0.000476821
0.000523015
0.000569323
0.000615545
0.00066148
0.000706941
0.000751747
0.000795734
0.000838751
0.000880659
0.000921331
0.000960649
0.000998504
0.00103479
0.00106941
0.00110228
0.0011333
0.00116239
0.00118948
0.00121451
0.00123743
0.0012582
0.00127683
0.00129333
0.00130775
0.00132018
0.00133075
0.0013396
0.00134692
0.00135286
0.00135762
0.00136123
0.00136379
0.00136513
5.32432e-06
4.81068e-06
6.60419e-06
1.2964e-05
2.81864e-05
5.59684e-05
9.56799e-05
0.000142941
0.000193324
0.000244392
0.000295285
0.000345858
0.000396229
0.000446582
0.000497091
0.00054787
0.000598956
0.000650313
0.000701835
0.000753365
0.000804711
0.000855658
0.000905981
0.000955462
0.00100389
0.00105106
0.00109679
0.00114092
0.00118331
0.00122382
0.00126234
0.00129876
0.00133301
0.00136501
0.00139469
0.00142203
0.00144699
0.00146955
0.00148976
0.00150763
0.00152326
0.00153673
0.0015482
0.00155783
0.0015658
0.00157228
0.00157746
0.0015814
0.00158417
0.00158562
7.9839e-06
7.24487e-06
9.73415e-06
1.87898e-05
4.03367e-05
7.8858e-05
0.000132252
0.000193324
0.000255535
0.000315769
0.000373364
0.000428627
0.000482124
0.000534434
0.000586069
0.000637437
0.000688835
0.000740439
0.000792319
0.000844442
0.000896698
0.000948908
0.00100085
0.00105228
0.00110292
0.00115252
0.00120082
0.00124757
0.00129257
0.0013356
0.00137651
0.00141516
0.00145142
0.00148521
0.00151646
0.00154513
0.00157121
0.00159469
0.00161563
0.00163409
0.00165017
0.00166398
0.00167568
0.00168547
0.00169354
0.00170006
0.00170526
0.00170918
0.00171194
0.00171335
1.13303e-05
1.03345e-05
1.36916e-05
2.59888e-05
5.47212e-05
0.000104589
0.000171238
0.000244392
0.000315769
0.000382108
0.000443293
0.000500238
0.000553978
0.000605433
0.000655371
0.000704424
0.000753091
0.000801755
0.000850677
0.000900005
0.000949778
0.000999938
0.00105035
0.00110079
0.00115102
0.00120073
0.00124961
0.00129735
0.00134365
0.0013882
0.00143077
0.00147111
0.00150904
0.00154442
0.00157713
0.0016071
0.0016343
0.00165872
0.00168043
0.0016995
0.00171603
0.00173018
0.00174212
0.00175205
0.00176018
0.00176673
0.0017719
0.00177577
0.00177848
0.00177986
1.52851e-05
1.40173e-05
1.84225e-05
3.44801e-05
7.11322e-05
0.000132696
0.000211893
0.000295285
0.000373364
0.000443293
0.000505826
0.000562575
0.00061502
0.000664348
0.000711482
0.000757152
0.000801956
0.000846385
0.000890837
0.000935619
0.000980938
0.0010269
0.00107352
0.00112071
0.0011683
0.00121605
0.00126365
0.00131077
0.00135704
0.0014021
0.00144558
0.00148716
0.00152654
0.00156347
0.00159775
0.00162924
0.00165786
0.00168356
0.00170638
0.00172639
0.0017437
0.00175847
0.00177089
0.00178117
0.00178955
0.00179625
0.0018015
0.00180541
0.00180812
0.00180949
1.972e-05
1.81815e-05
2.38185e-05
4.41166e-05
8.9314e-05
0.000162799
0.000253837
0.000345858
0.000428627
0.000500238
0.000562575
0.000617995
0.000668391
0.000715156
0.000759299
0.000801568
0.000842554
0.000882754
0.000922603
0.000962484
0.00100272
0.00104356
0.00108518
0.00112766
0.00117099
0.00121506
0.00125965
0.0013045
0.00134925
0.00139352
0.00143688
0.00147891
0.00151921
0.00155742
0.00159321
0.00162633
0.00165659
0.00168388
0.00170817
0.0017295
0.00174797
0.0017637
0.00177691
0.00178781
0.00179667
0.00180371
0.0018092
0.00181325
0.00181604
0.00181744
2.44833e-05
2.26874e-05
2.97374e-05
5.47121e-05
0.000108989
0.000194562
0.000296855
0.000396229
0.000482124
0.000553978
0.00061502
0.000668391
0.000716346
0.000760433
0.000801709
0.000840907
0.000878565
0.000915114
0.000950942
0.000986416
0.00102189
0.00105768
0.00109409
0.00113133
0.00116955
0.00120883
0.0012491
0.00129024
0.00133199
0.00137404
0.00141596
0.00145733
0.00149766
0.00153648
0.00157336
0.00160791
0.00163981
0.00166882
0.00169482
0.00171777
0.0017377
0.00175474
0.00176905
0.00178085
0.00179043
0.00179802
0.00180389
0.00180821
0.00181115
0.00181264
2.94219e-05
2.73891e-05
3.60252e-05
6.60661e-05
0.000129877
0.000227685
0.0003408
0.000446582
0.000534434
0.000605433
0.000664348
0.000715156
0.000760433
0.000801821
0.000840396
0.000876861
0.000911693
0.000945242
0.000977806
0.00100968
0.00104115
0.00107256
0.00110422
0.00113645
0.0011695
0.0012036
0.00123886
0.00127533
0.00131292
0.00135145
0.00139061
0.00143001
0.00146919
0.00150764
0.00154483
0.00158025
0.00161346
0.00164408
0.00167181
0.00169652
0.00171816
0.00173675
0.00175244
0.00176541
0.00177593
0.00178426
0.0017907
0.0017954
0.00179858
0.00180018
3.43974e-05
3.215e-05
4.25327e-05
7.79834e-05
0.000151713
0.00026189
0.000385541
0.000497091
0.000586069
0.000655371
0.000711482
0.000759299
0.000801709
0.000840396
0.0008764
0.000910383
0.000942767
0.000973829
0.00100378
0.0010328
0.00106113
0.001089
0.00111671
0.00114458
0.00117294
0.00120208
0.00123226
0.00126369
0.00129645
0.00133055
0.00136583
0.00140206
0.00143886
0.00147575
0.00151221
0.00154766
0.00158154
0.00161332
0.00164257
0.00166899
0.0016924
0.00171272
0.00172998
0.00174434
0.00175603
0.0017653
0.00177244
0.00177765
0.00178116
0.00178292
3.92936e-05
3.68523e-05
4.91273e-05
9.02871e-05
0.000174256
0.000296918
0.000430935
0.00054787
0.000637437
0.000704424
0.000757152
0.000801568
0.000840907
0.000876861
0.000910383
0.000942058
0.000972245
0.00100116
0.00102895
0.00105572
0.00108158
0.0011067
0.00113129
0.00115563
0.00118002
0.0012048
0.00123031
0.00125683
0.00128463
0.00131385
0.00134456
0.00137669
0.00141001
0.0014442
0.00147878
0.00151319
0.00154684
0.00157909
0.00160937
0.00163722
0.00166229
0.00168434
0.0017033
0.00171922
0.00173225
0.00174263
0.00175064
0.00175648
0.0017604
0.00176237
4.4019e-05
4.14012e-05
5.56984e-05
0.000102826
0.000197292
0.000332529
0.000476821
0.000598956
0.000688835
0.000753091
0.000801956
0.000842554
0.000878565
0.000911693
0.000942767
0.000972245
0.0010004
0.0010274
0.00105332
0.00107821
0.0011021
0.00112508
0.00114725
0.00116883
0.00119004
0.00121121
0.00123267
0.00125477
0.00127787
0.00130224
0.00132812
0.0013556
0.00138468
0.00141519
0.00144681
0.0014791
0.00151147
0.00154328
0.00157387
0.00160261
0.00162901
0.00165266
0.0016733
0.00169085
0.00170537
0.00171701
0.00172603
0.00173262
0.00173704
0.00173926
4.85046e-05
4.5724e-05
6.21589e-05
0.000115475
0.000220641
0.000368503
0.000523015
0.000650313
0.000740439
0.000801755
0.000846385
0.000882754
0.000915114
0.000945242
0.000973829
0.00100116
0.0010274
0.00105262
0.00107685
0.0011001
0.00112234
0.00114359
0.00116387
0.00118328
0.00120201
0.00122029
0.00123842
0.00125676
0.00127568
0.00129555
0.0013167
0.00133941
0.00136384
0.00139002
0.00141783
0.00144699
0.00147704
0.0015074
0.00153738
0.00156629
0.00159348
0.00161837
0.00164052
0.00165967
0.00167573
0.00168874
0.00169889
0.00170635
0.00171136
0.00171388
5.27004e-05
4.97672e-05
6.84425e-05
0.000128134
0.000244149
0.000404639
0.000569323
0.000701835
0.000792319
0.000850677
0.000890837
0.000922603
0.000950942
0.000977806
0.00100378
0.00102895
0.00105332
0.00107685
0.00109952
0.00112126
0.00114205
0.00116181
0.00118054
0.00119825
0.00121502
0.00123102
0.00124649
0.00126173
0.0012771
0.001293
0.00130981
0.00132793
0.00134765
0.0013692
0.00139264
0.0014179
0.0014447
0.00147261
0.00150102
0.00152921
0.00155646
0.00158206
0.00160538
0.00162595
0.0016435
0.00165792
0.0016693
0.00167772
0.00168341
0.00168627
5.65698e-05
5.34919e-05
7.44995e-05
0.000140727
0.000267689
0.000440758
0.000615545
0.000753365
0.000844442
0.000900005
0.000935619
0.000962484
0.000986416
0.00100968
0.0010328
0.00105572
0.00107821
0.0011001
0.00112126
0.00114161
0.00116104
0.00117947
0.00119685
0.00121313
0.00122833
0.00124253
0.00125588
0.00126862
0.00128106
0.00129358
0.00130659
0.0013205
0.00133574
0.00135265
0.00137148
0.00139235
0.00141521
0.00143981
0.00146569
0.00149221
0.00151867
0.00154427
0.00156823
0.00158988
0.00160876
0.00162455
0.00163718
0.00164664
0.00165306
0.00165631
6.00852e-05
5.68689e-05
8.02918e-05
0.000153189
0.000291155
0.000476703
0.00066148
0.000804711
0.000896698
0.000949778
0.000980938
0.00100272
0.00102189
0.00104115
0.00106113
0.00108158
0.0011021
0.00112234
0.00114205
0.00116104
0.00117918
0.00119637
0.00121251
0.00122753
0.00124139
0.0012541
0.00126574
0.00127648
0.00128654
0.00129626
0.00130601
0.00131623
0.00132738
0.00133988
0.00135413
0.00137042
0.0013889
0.00140953
0.00143206
0.00145602
0.00148077
0.00150554
0.00152946
0.0015517
0.00157158
0.00158858
0.00160242
0.00161292
0.00162013
0.0016238
6.32236e-05
5.98743e-05
8.57883e-05
0.000165469
0.000314456
0.000512332
0.000706941
0.000855658
0.000948908
0.000999938
0.0010269
0.00104356
0.00105768
0.00107256
0.001089
0.0011067
0.00112508
0.00114359
0.00116181
0.00117947
0.00119637
0.00121236
0.00122732
0.00124117
0.00125382
0.00126524
0.00127544
0.00128452
0.00129265
0.00130006
0.00130709
0.00131414
0.00132167
0.00133016
0.00134007
0.00135183
0.00136575
0.00138201
0.00140057
0.00142118
0.00144334
0.0014664
0.00148948
0.00151166
0.00153208
0.00154998
0.00156488
0.00157639
0.00158438
0.00158849
6.59624e-05
6.24858e-05
9.09605e-05
0.00017752
0.000337511
0.000547519
0.000751747
0.000905981
0.00100085
0.00105035
0.00107352
0.00108518
0.00109409
0.00110422
0.00111671
0.00113129
0.00114725
0.00116387
0.00118054
0.00119685
0.00121251
0.00122732
0.00124114
0.00125384
0.00126534
0.00127557
0.0012845
0.00129217
0.00129866
0.00130416
0.00130892
0.0013133
0.00131771
0.00132263
0.00132856
0.00133601
0.00134543
0.00135715
0.00137135
0.00138801
0.00140683
0.00142733
0.00144873
0.00147008
0.00149042
0.0015088
0.00152449
0.00153686
0.00154558
0.00155012
6.82771e-05
6.4679e-05
9.57789e-05
0.000189295
0.000360246
0.00058215
0.000795734
0.000955462
0.00105228
0.00110079
0.00112071
0.00112766
0.00113133
0.00113645
0.00114458
0.00115563
0.00116883
0.00118328
0.00119825
0.00121313
0.00122753
0.00124117
0.00125384
0.00126541
0.00127578
0.00128486
0.0012926
0.00129898
0.00130405
0.00130791
0.00131075
0.00131286
0.0013146
0.00131641
0.00131879
0.00132228
0.0013274
0.00133462
0.0013443
0.00135661
0.0013715
0.00138869
0.00140757
0.00142728
0.00144682
0.0014651
0.00148118
0.00149417
0.00150351
0.00150842
7.01391e-05
6.64261e-05
0.000100211
0.000200747
0.000382588
0.000616119
0.000838751
0.00100389
0.00110292
0.00115102
0.0011683
0.00117099
0.00116955
0.0011695
0.00117294
0.00118002
0.00119004
0.00120201
0.00121502
0.00122833
0.00124139
0.00125382
0.00126534
0.00127578
0.00128501
0.00129295
0.00129951
0.00130466
0.0013084
0.0013108
0.00131197
0.00131212
0.00131156
0.00131068
0.00130993
0.00130985
0.00131099
0.0013139
0.00131907
0.00132686
0.00133742
0.0013507
0.00136632
0.00138357
0.00140152
0.00141902
0.00143496
0.00144822
0.00145796
0.00146315
7.15141e-05
6.76935e-05
0.000104218
0.000211823
0.000404463
0.000649327
0.000880659
0.00105106
0.00115252
0.00120073
0.00121605
0.00121506
0.00120883
0.0012036
0.00120208
0.0012048
0.00121121
0.00122029
0.00123102
0.00124253
0.0012541
0.00126524
0.00127557
0.00128486
0.00129295
0.00129971
0.00130508
0.00130901
0.00131147
0.00131248
0.00131212
0.00131053
0.00130796
0.00130471
0.00130121
0.00129794
0.00129546
0.00129435
0.00129517
0.00129842
0.00130445
0.00131339
0.00132514
0.00133919
0.00135475
0.00137072
0.00138588
0.00139893
0.00140876
0.0014141
7.23619e-05
6.84421e-05
0.000107756
0.000222467
0.000425794
0.000681675
0.000921331
0.00109679
0.00120082
0.00124961
0.00126365
0.00125965
0.0012491
0.00123886
0.00123226
0.00123031
0.00123267
0.00123842
0.00124649
0.00125588
0.00126574
0.00127544
0.0012845
0.0012926
0.00129951
0.00130508
0.00130924
0.00131191
0.00131306
0.0013127
0.00131087
0.00130766
0.00130326
0.0012979
0.00129195
0.00128584
0.00128008
0.00127526
0.00127198
0.00127082
0.00127227
0.00127663
0.00128405
0.00129427
0.0013067
0.00132035
0.00133402
0.00134627
0.0013558
0.00136107
7.26365e-05
6.86268e-05
0.000110775
0.000232614
0.000446501
0.000713067
0.000960649
0.00114092
0.00124757
0.00129735
0.00131077
0.0013045
0.00129024
0.00127533
0.00126369
0.00125683
0.00125477
0.00125676
0.00126173
0.00126862
0.00127648
0.00128452
0.00129217
0.00129898
0.00130466
0.00130901
0.00131191
0.00131328
0.00131309
0.00131133
0.00130802
0.00130323
0.00129708
0.00128977
0.00128158
0.00127289
0.00126417
0.00125595
0.00124885
0.00124347
0.00124041
0.00124011
0.00124291
0.0012488
0.00125743
0.00126802
0.00127944
0.00129025
0.001299
0.00130394
7.22865e-05
6.81969e-05
0.000113219
0.000242195
0.000466496
0.000743407
0.000998504
0.00118331
0.00129257
0.00134365
0.00135704
0.00134925
0.00133199
0.00131292
0.00129645
0.00128463
0.00127787
0.00127568
0.0012771
0.00128106
0.00128654
0.00129265
0.00129866
0.00130405
0.0013084
0.00131147
0.00131306
0.00131309
0.0013115
0.00130828
0.00130345
0.00129704
0.00128917
0.00127996
0.00126967
0.00125858
0.00124712
0.00123577
0.0012251
0.00121574
0.00120832
0.00120339
0.00120141
0.00120263
0.00120693
0.00121376
0.00122221
0.00123088
0.00123829
0.0012426
7.12566e-05
6.70979e-05
0.000115028
0.000251134
0.000485691
0.000772596
0.00103479
0.00122382
0.0013356
0.0013882
0.0014021
0.00139352
0.00137404
0.00135145
0.00133055
0.00131385
0.00130224
0.00129555
0.001293
0.00129358
0.00129626
0.00130006
0.00130416
0.00130791
0.0013108
0.00131248
0.0013127
0.00131133
0.00130828
0.00130354
0.0012971
0.00128902
0.00127936
0.00126825
0.00125588
0.00124249
0.00122843
0.00121414
0.00120013
0.001187
0.00117539
0.00116591
0.00115912
0.00115545
0.00115501
0.00115752
0.0011623
0.00116814
0.00117364
0.00117698
6.94892e-05
6.52729e-05
0.000116137
0.000259353
0.00050399
0.000800536
0.00106941
0.00126234
0.00137651
0.00143077
0.00144558
0.00143688
0.00141596
0.00139061
0.00136583
0.00134456
0.00132812
0.0013167
0.00130981
0.00130659
0.00130601
0.00130709
0.00130892
0.00131075
0.00131197
0.00131212
0.00131087
0.00130802
0.00130345
0.0012971
0.00128898
0.00127913
0.0012676
0.00125452
0.00124002
0.00122433
0.00120773
0.00119059
0.00117338
0.00115664
0.001141
0.00112708
0.00111551
0.00110683
0.00110136
0.00109909
0.00109959
0.00110194
0.00110496
0.00110699
6.69266e-05
6.26646e-05
0.000116481
0.000266771
0.000521298
0.000827128
0.00110228
0.00129876
0.00141516
0.00147111
0.00148716
0.00147891
0.00145733
0.00143001
0.00140206
0.00137669
0.0013556
0.00133941
0.00132793
0.0013205
0.00131623
0.00131414
0.0013133
0.00131286
0.00131212
0.00131053
0.00130766
0.00130323
0.00129704
0.00128902
0.00127913
0.0012674
0.00125389
0.00123871
0.00122199
0.00120392
0.00118474
0.00116476
0.0011444
0.00112414
0.00110457
0.0010863
0.00106998
0.00105623
0.00104553
0.00103811
0.00103383
0.00103211
0.0010321
0.00103247
6.35143e-05
5.92188e-05
0.000115999
0.000273308
0.000537519
0.000852274
0.0011333
0.00133301
0.00145142
0.00150904
0.00152654
0.00151921
0.00149766
0.00146919
0.00143886
0.00141001
0.00138468
0.00136384
0.00134765
0.00133574
0.00132738
0.00132167
0.00131771
0.0013146
0.00131156
0.00130796
0.00130326
0.00129708
0.00128917
0.00127936
0.0012676
0.00125389
0.00123828
0.00122087
0.00120178
0.00118119
0.0011593
0.0011364
0.00111284
0.00108906
0.00106557
0.00104297
0.0010219
0.00100302
0.000986945
0.000974083
0.000964603
0.000958303
0.00095477
0.000953164
5.92041e-05
5.48877e-05
0.000114632
0.000278887
0.000552558
0.000875879
0.00116239
0.00136501
0.00148521
0.00154442
0.00156347
0.00155742
0.00153648
0.00150764
0.00147575
0.0014442
0.00141519
0.00139002
0.0013692
0.00135265
0.00133988
0.00133016
0.00132263
0.00131641
0.00131068
0.00130471
0.0012979
0.00128977
0.00127996
0.00126825
0.00125452
0.00123871
0.00122087
0.00120108
0.00117945
0.00115615
0.00113138
0.00110539
0.00107848
0.00105104
0.00102355
0.000996547
0.000970658
0.000946546
0.000924911
0.00090634
0.000891282
0.000879941
0.000872443
0.000868568
5.39586e-05
4.96336e-05
0.000112333
0.00028344
0.00056633
0.000897856
0.00118948
0.00139469
0.00151646
0.00157713
0.00159775
0.00159321
0.00157336
0.00154483
0.00151221
0.00147878
0.00144681
0.00141783
0.00139264
0.00137148
0.00135413
0.00134007
0.00132856
0.00131879
0.00130993
0.00130121
0.00129195
0.00128158
0.00126967
0.00125588
0.00124002
0.00122199
0.00120178
0.00117945
0.0011551
0.00112889
0.001101
0.00107166
0.00104117
0.00100985
0.000978139
0.000946532
0.00091562
0.000886066
0.00085862
0.000834024
0.000812997
0.000796177
0.000784298
0.000777881
4.7756e-05
4.34346e-05
0.000109069
0.00028691
0.000578756
0.000918126
0.00121451
0.00142203
0.00154513
0.0016071
0.00162924
0.00162633
0.00160791
0.00158025
0.00154766
0.00151319
0.0014791
0.00144699
0.0014179
0.00139235
0.00137042
0.00135183
0.00133601
0.00132228
0.00130985
0.00129794
0.00128584
0.00127289
0.00125858
0.00124249
0.00122433
0.00120392
0.00118119
0.00115615
0.00112889
0.00109953
0.00106826
0.00103529
0.00100088
0.000965343
0.000929059
0.000892488
0.000856184
0.000820808
0.000787138
0.000756069
0.000728599
0.000705823
0.000689151
0.000679936
4.05956e-05
3.62895e-05
0.000104824
0.000289258
0.000589776
0.000936622
0.00123743
0.00144699
0.00157121
0.0016343
0.00165786
0.00165659
0.00163981
0.00161346
0.00158154
0.00154684
0.00151147
0.00147704
0.0014447
0.00141521
0.0013889
0.00136575
0.00134543
0.0013274
0.00131099
0.00129546
0.00128008
0.00126417
0.00124712
0.00122843
0.00120773
0.00118474
0.0011593
0.00113138
0.001101
0.00106826
0.00103331
0.000996364
0.000957646
0.000917443
0.000876095
0.000834022
0.000791747
0.000749926
0.000709387
0.000671193
0.000636656
0.000607384
0.000585517
0.000573281
3.25041e-05
2.82245e-05
9.96106e-05
0.00029047
0.00059935
0.000953299
0.0012582
0.00146955
0.00159469
0.00165872
0.00168356
0.00168388
0.00166882
0.00164408
0.00161332
0.00157909
0.00154328
0.0015074
0.00147261
0.00143981
0.00140953
0.00138201
0.00135715
0.00133462
0.0013139
0.00129435
0.00127526
0.00125595
0.00123577
0.00121414
0.00119059
0.00116476
0.0011364
0.00110539
0.00107166
0.00103529
0.000996364
0.000955057
0.00091157
0.000866149
0.00081909
0.000770771
0.000721687
0.000672508
0.000624162
0.000577943
0.000535578
0.000499274
0.000471928
0.000456565
2.35385e-05
1.92955e-05
9.34699e-05
0.000290556
0.000607462
0.000968137
0.00127683
0.00148976
0.00161563
0.00168043
0.00170638
0.00170817
0.00169482
0.00167181
0.00164257
0.00160937
0.00157387
0.00153738
0.00150102
0.00146569
0.00143206
0.00140057
0.00137135
0.0013443
0.00131907
0.00129517
0.00127198
0.00124885
0.0012251
0.00120013
0.00117338
0.0011444
0.00111284
0.00107848
0.00104117
0.00100088
0.000957646
0.00091157
0.000862794
0.0008115
0.000757925
0.000702391
0.000645374
0.00058761
0.000530229
0.000474915
0.000423999
0.000380403
0.00034771
0.000329437
1.37916e-05
9.59408e-06
8.64761e-05
0.000289561
0.000614126
0.000981141
0.00129333
0.00150763
0.00163409
0.0016995
0.00172639
0.0017295
0.00171777
0.00169652
0.00166899
0.00163722
0.00160261
0.00156629
0.00152921
0.00149221
0.00145602
0.00142118
0.00138801
0.00135661
0.00132686
0.00129842
0.00127082
0.00124347
0.00121574
0.001187
0.00115664
0.00112414
0.00108906
0.00105104
0.00100985
0.000965343
0.000917443
0.000866149
0.0008115
0.000753577
0.000692517
0.000628573
0.000562233
0.000494403
0.00042663
0.000361291
0.000301604
0.000251281
0.000214282
0.000193928
3.40588e-06
-7.38837e-07
7.87517e-05
0.000287571
0.000619399
0.000992355
0.00130775
0.00152326
0.00165017
0.00171603
0.0017437
0.00174797
0.0017377
0.00171816
0.0016924
0.00166229
0.00162901
0.00159348
0.00155646
0.00151867
0.00148077
0.00144334
0.00140683
0.0013715
0.00133742
0.00130445
0.00127227
0.00124041
0.00120832
0.00117539
0.001141
0.00110457
0.00106557
0.00102355
0.000978139
0.000929059
0.000876095
0.00081909
0.000757925
0.000692517
0.000622861
0.000549138
0.000471933
0.000392547
0.000313333
0.000237824
0.00017041
0.000115447
7.65476e-05
5.57622e-05
-7.43158e-06
-1.15181e-05
7.04616e-05
0.000284716
0.000623372
0.00100186
0.00132018
0.00153673
0.00166398
0.00173018
0.00175847
0.0017637
0.00175474
0.00173675
0.00171272
0.00168434
0.00165266
0.00161837
0.00158206
0.00154427
0.00150554
0.0014664
0.00142733
0.00138869
0.0013507
0.00131339
0.00127663
0.00124011
0.00120339
0.00116591
0.00112708
0.0010863
0.00104297
0.000996547
0.000946532
0.000892488
0.000834022
0.000770771
0.000702391
0.000628573
0.000549138
0.000464247
0.00037479
0.000282882
0.000192256
0.0001081
3.60138e-05
-1.96528e-05
-5.67803e-05
-7.57306e-05
-1.84748e-05
-2.24998e-05
6.18278e-05
0.000281176
0.000626188
0.00100977
0.00133075
0.0015482
0.00167568
0.00174212
0.00177089
0.00177691
0.00176905
0.00175244
0.00172998
0.0017033
0.0016733
0.00164052
0.00160538
0.00156823
0.00152946
0.00148948
0.00144873
0.00140757
0.00136632
0.00132514
0.00128405
0.00124291
0.00120141
0.00115912
0.00111551
0.00106998
0.0010219
0.000970658
0.00091562
0.000856184
0.000791747
0.000721687
0.000645374
0.000562233
0.000471933
0.00037479
0.000272402
0.000168328
6.83046e-05
-2.06497e-05
-9.23346e-05
-0.000143635
-0.000175122
-0.000190124
-2.94405e-05
-3.34031e-05
5.31077e-05
0.000277165
0.000628015
0.00101623
0.0013396
0.00155783
0.00168547
0.00175205
0.00178117
0.00178781
0.00178085
0.00176541
0.00174434
0.00171922
0.00169085
0.00165967
0.00162595
0.00158988
0.0015517
0.00151166
0.00147008
0.00142728
0.00138357
0.00133919
0.00129427
0.0012488
0.00120263
0.00115545
0.00110683
0.00105623
0.00100302
0.000946546
0.000886066
0.000820808
0.000749926
0.000672508
0.00058761
0.000494403
0.000392547
0.000282882
0.000168328
5.45618e-05
-5.04173e-05
-0.000138373
-0.000203902
-0.000246491
-0.000269908
-0.000279941
-3.99815e-05
-4.38834e-05
4.46196e-05
0.000272954
0.000629073
0.00102144
0.00134692
0.0015658
0.00169354
0.00176018
0.00178955
0.00179667
0.00179043
0.00177593
0.00175603
0.00173225
0.00170537
0.00167573
0.0016435
0.00160876
0.00157158
0.00153208
0.00149042
0.00144682
0.00140152
0.00135475
0.0013067
0.00125743
0.00120693
0.00115501
0.00110136
0.00104553
0.000986945
0.000924911
0.00085862
0.000787138
0.000709387
0.000624162
0.000530229
0.00042663
0.000313333
0.000192256
6.83046e-05
-5.04173e-05
-0.000154229
-0.000235217
-0.000290415
-0.00032255
-0.000337921
-0.000343437
-4.97509e-05
-5.35963e-05
3.66787e-05
0.0002688
0.000629562
0.00102557
0.00135286
0.00157228
0.00170006
0.00176673
0.00179625
0.00180371
0.00179802
0.00178426
0.0017653
0.00174263
0.00171701
0.00168874
0.00165792
0.00162455
0.00158858
0.00154998
0.0015088
0.0014651
0.00141902
0.00137072
0.00132035
0.00126802
0.00121376
0.00115752
0.00109909
0.00103811
0.000974083
0.00090634
0.000834024
0.000756069
0.000671193
0.000577943
0.000474915
0.000361291
0.000237824
0.0001081
-2.06497e-05
-0.000138373
-0.000235217
-0.000305406
-0.000349298
-0.00037226
-0.000381642
-0.000384093
-5.83331e-05
-6.21284e-05
2.96646e-05
0.00026502
0.000629728
0.0010288
0.00135762
0.00157746
0.00170526
0.0017719
0.0018015
0.0018092
0.00180389
0.0017907
0.00177244
0.00175064
0.00172603
0.00169889
0.0016693
0.00163718
0.00160242
0.00156488
0.00152449
0.00148118
0.00143496
0.00138588
0.00133402
0.00127944
0.00122221
0.0011623
0.00109959
0.00103383
0.000964603
0.000891282
0.000812997
0.000728599
0.000636656
0.000535578
0.000423999
0.000301604
0.00017041
3.60138e-05
-9.23346e-05
-0.000203902
-0.000290415
-0.000349298
-0.000383851
-0.000400694
-0.000406818
-0.000407815
-6.53894e-05
-6.91435e-05
2.38739e-05
0.00026183
0.000629698
0.00103122
0.00136123
0.0015814
0.00170918
0.00177577
0.00180541
0.00181325
0.00180821
0.0017954
0.00177765
0.00175648
0.00173262
0.00170635
0.00167772
0.00164664
0.00161292
0.00157639
0.00153686
0.00149417
0.00144822
0.00139893
0.00134627
0.00129025
0.00123088
0.00116814
0.00110194
0.00103211
0.000958303
0.000879941
0.000796177
0.000705823
0.000607384
0.000499274
0.000380403
0.000251281
0.000115447
-1.96528e-05
-0.000143635
-0.000246491
-0.00032255
-0.00037226
-0.000400694
-0.000414488
-0.000419575
-0.000420332
-7.04673e-05
-7.41907e-05
1.97089e-05
0.000259534
0.000629667
0.00103293
0.00136379
0.00158417
0.00171194
0.00177848
0.00180812
0.00181604
0.00181115
0.00179858
0.00178116
0.0017604
0.00173704
0.00171136
0.00168341
0.00165306
0.00162013
0.00158438
0.00154558
0.00150351
0.00145796
0.00140876
0.0013558
0.001299
0.00123829
0.00117364
0.00110496
0.0010321
0.00095477
0.000872443
0.000784298
0.000689151
0.000585517
0.000471928
0.00034771
0.000214282
7.65476e-05
-5.67803e-05
-0.000175122
-0.000269908
-0.000337921
-0.000381642
-0.000406818
-0.000419575
-0.000424848
-0.00042604
-7.32546e-05
-7.69883e-05
1.7377e-05
0.000258213
0.000629596
0.00103383
0.00136513
0.00158562
0.00171335
0.00177986
0.00180949
0.00181744
0.00181264
0.00180018
0.00178292
0.00176237
0.00173926
0.00171388
0.00168627
0.00165631
0.0016238
0.00158849
0.00155012
0.00150842
0.00146315
0.0014141
0.00136107
0.00130394
0.0012426
0.00117698
0.00110699
0.00103247
0.000953164
0.000868568
0.000777881
0.000679936
0.000573281
0.000456565
0.000329437
0.000193928
5.57622e-05
-7.57306e-05
-0.000190124
-0.000279941
-0.000343437
-0.000384093
-0.000407815
-0.000420332
-0.00042604
-0.000427694
)
;

boundaryField
{
    bottomWall
    {
        type            zeroGradient;
    }
    leftWall
    {
        type            zeroGradient;
    }
    topSym
    {
        type            symmetryPlane;
    }
    rightSym
    {
        type            symmetryPlane;
    }
    inlet
    {
        type            cyclic;
    }
    outlet
    {
        type            cyclic;
    }
}


// ************************************************************************* //
