/*--------------------------------*- C++ -*----------------------------------*\
| =========                 |                                                 |
| \\      /  F ield         | OpenFOAM: The Open Source CFD Toolbox           |
|  \\    /   O peration     | Version:  2.3.x                                 |
|   \\  /    A nd           | Web:      www.OpenFOAM.org                      |
|    \\/     M anipulation  |                                                 |
\*---------------------------------------------------------------------------*/
FoamFile
{
    version     2.0;
    format      ascii;
    class       volVectorField;
    location    "0";
    object      U;
}
// * * * * * * * * * * * * * * * * * * * * * * * * * * * * * * * * * * * * * //

dimensions      [0 1 -1 0 0 0 0];

internalField   nonuniform List<vector> 
1500
(
(0.0128788 -0.000290213 -1.58569e-24)
(0.00979908 -0.00276441 2.08408e-24)
(0.000700642 -0.000844269 0)
(-0.00219647 0.00155024 1.01371e-18)
(-0.00151167 0.00109017 0)
(-0.00199722 0.00145982 -4.22722e-21)
(-0.00222547 0.00166014 -4.56308e-19)
(-0.00219721 0.00156832 0)
(-0.00216348 0.00130073 -4.26822e-19)
(-0.00219546 0.00092697 2.60402e-19)
(-0.00226574 0.000482934 2.928e-19)
(-0.00232718 4.62055e-05 -3.72799e-20)
(-0.00213851 -2.45051e-05 0)
(-0.0016552 -3.09705e-05 0)
(-0.00110203 -2.99176e-05 0)
(-0.000596902 -2.64422e-05 -2.22294e-22)
(-0.000102235 -2.53643e-05 0)
(0.0150987 -0.000358303 0)
(0.0121789 -0.00329572 0)
(0.00419852 -0.00219842 -1.31762e-19)
(-0.00443222 0.00377905 -1.56493e-18)
(-0.00327194 0.00269845 2.4485e-18)
(-0.00253573 0.00202948 -6.87507e-19)
(-0.00240137 0.00186064 2.72263e-19)
(-0.00236097 0.00171611 2.3064e-22)
(-0.00234827 0.00142556 2.50795e-19)
(-0.0024111 0.00102505 -1.52702e-19)
(-0.00249677 0.000541311 1.68674e-19)
(-0.00252301 5.5732e-05 1.01369e-20)
(-0.00226825 -2.88628e-05 2.61737e-22)
(-0.00173579 -4.39623e-05 1.04588e-21)
(-0.0011414 -4.49207e-05 0)
(-0.000603849 -4.20803e-05 -3.72585e-22)
(-7.83225e-05 -4.07447e-05 5.52241e-22)
(0.0170971 -0.000286999 0)
(0.0142212 -0.00359464 5.73323e-20)
(0.00682821 -0.00328499 6.28175e-20)
(-0.00458247 0.00410498 7.50043e-22)
(-0.0040668 0.00324523 -2.13679e-18)
(-0.00287978 0.00223107 -2.53415e-22)
(-0.00258661 0.00198567 -6.08434e-19)
(-0.00253107 0.00183347 2.48776e-22)
(-0.00253051 0.00153593 -5.78458e-19)
(-0.00260845 0.00111232 0)
(-0.00269317 0.000582855 -1.80599e-19)
(-0.00267235 4.36161e-05 0)
(-0.0023504 -6.66463e-05 0)
(-0.00177237 -9.35017e-05 -8.44294e-22)
(-0.00114065 -9.36011e-05 -1.08613e-21)
(-0.000572176 -8.67234e-05 2.77812e-22)
(-1.44262e-05 -8.37933e-05 -1.78645e-21)
(0.018858 -0.000178728 -7.70714e-22)
(0.0160432 -0.00373114 -5.13998e-20)
(0.00885627 -0.00387381 -2.46894e-20)
(-0.00104491 0.00189348 5.00905e-22)
(-0.00335365 0.00269418 -4.94562e-22)
(-0.00295947 0.00222201 1.04092e-21)
(-0.00270034 0.00204462 3.33379e-19)
(-0.00266127 0.00191853 0)
(-0.00267797 0.00162366 6.54412e-19)
(-0.00275973 0.00117855 7.04527e-22)
(-0.0028274 0.000606525 1.90062e-19)
(-0.00274845 2.0462e-05 1.47169e-21)
(-0.00235893 -0.000118761 -6.03498e-22)
(-0.00174142 -0.000158849 0)
(-0.00107878 -0.000157531 5.81698e-22)
(-0.000482946 -0.000145687 5.76579e-22)
(0.000106231 -0.000141166 1.27456e-21)
(0.0203872 -4.21365e-05 7.31713e-22)
(0.0177058 -0.00371117 1.29754e-24)
(0.0108105 -0.00420749 8.22763e-21)
(0.00242505 -0.00011079 -3.34443e-19)
(-0.00188994 0.00177687 -1.45046e-21)
(-0.00268419 0.00200413 8.23414e-22)
(-0.00266559 0.00200028 0)
(-0.00270114 0.00194236 3.39581e-19)
(-0.00274952 0.00166715 -3.65038e-19)
(-0.00282766 0.00120776 1.59594e-21)
(-0.00286482 0.000600733 -2.02071e-19)
(-0.00271714 -2.2495e-05 0)
(-0.00226051 -0.000193384 1.35716e-21)
(-0.00161244 -0.000246971 3.93096e-21)
(-0.000928112 -0.000242955 1.30169e-21)
(-0.000311058 -0.00022464 -1.23964e-21)
(0.000305298 -0.000218202 0)
(0.0216983 0.000115386 -3.6088e-24)
(0.0192323 -0.00353392 -2.12227e-20)
(0.0127696 -0.00437981 8.20002e-21)
(0.00528966 -0.00143983 2.06023e-19)
(0.000246555 0.00067579 1.17776e-21)
(-0.00187924 0.00155288 -1.55125e-21)
(-0.00235985 0.00180434 3.81619e-19)
(-0.00256959 0.00186289 -7.48724e-19)
(-0.00268353 0.0016341 3.1896e-21)
(-0.00276025 0.00117645 -6.62661e-21)
(-0.00275797 0.000549268 -1.63785e-22)
(-0.00253269 -9.59139e-05 3.11022e-21)
(-0.0020117 -0.000298854 0)
(-0.00134562 -0.00036432 -8.33496e-21)
(-0.000652115 -0.000355837 1.26092e-21)
(-2.31808e-05 -0.000329137 -5.65186e-23)
(0.000610785 -0.000320198 1.39791e-21)
(0.0228095 0.000288514 -7.9041e-25)
(0.0206302 -0.00320091 1.95202e-20)
(0.0147714 -0.00438194 0)
(0.00810193 -0.00236502 0)
(0.00290726 -0.000456278 -3.21542e-19)
(-0.00029568 0.00082613 3.34532e-21)
(-0.00158197 0.00139839 -4.04624e-19)
(-0.00213179 0.0016243 -1.70727e-21)
(-0.00238323 0.00148053 -3.62404e-21)
(-0.00248103 0.00105227 6.79918e-21)
(-0.00243943 0.000429054 0)
(-0.00213203 -0.000215553 1.95747e-20)
(-0.00155482 -0.000446348 5.66194e-21)
(-0.000888162 -0.000518965 -1.46097e-20)
(-0.000201958 -0.000503314 2.80886e-21)
(0.000422225 -0.000465621 -5.70736e-21)
(0.00106209 -0.00045329 -2.92632e-21)
(0.0237432 0.000469559 -6.1779e-24)
(0.0218996 -0.00272793 6.50638e-24)
(0.0168019 -0.0041921 -1.09604e-22)
(0.0109372 -0.0029802 -4.50939e-22)
(0.00593481 -0.00144798 4.9403e-19)
(0.00221247 -0.000126482 -3.57341e-19)
(-1.11063e-05 0.000725818 3.01778e-21)
(-0.0011546 0.00116317 7.28157e-21)
(-0.00168656 0.00115287 2.12935e-19)
(-0.00186933 0.00079346 -2.27334e-19)
(-0.00180894 0.000209312 0)
(-0.00142536 -0.000402842 -2.02639e-20)
(-0.000811241 -0.000648356 -3.04621e-20)
(-0.000168588 -0.000718327 -6.27851e-21)
(0.00048602 -0.000690977 1.20347e-20)
(0.0010805 -0.000639687 1.27333e-22)
(0.00171354 -0.000622982 3.02563e-21)
(0.0245266 0.000650679 0)
(0.0230405 -0.00214928 0)
(0.018818 -0.00379868 -1.11357e-22)
(0.0137905 -0.00329529 -1.04915e-19)
(0.00922171 -0.00221134 -3.87589e-19)
(0.00544691 -0.00109128 5.68937e-19)
(0.00262823 -0.000183265 -6.41381e-21)
(0.000752322 0.000430143 8.82687e-19)
(-0.000305629 0.000602597 -4.99648e-19)
(-0.000718409 0.000356212 2.65182e-19)
(-0.000710068 -0.000144559 0)
(-0.000281628 -0.000683766 0)
(0.000328236 -0.000916058 2.54552e-20)
(0.000906119 -0.000965489 -3.20801e-22)
(0.00149209 -0.000921719 1.19441e-20)
(0.00203322 -0.000855159 6.16392e-21)
(0.00264132 -0.000832758 6.30573e-21)
(0.0251935 0.000824424 0)
(0.0240592 -0.00151782 3.81113e-23)
(0.0207603 -0.00321636 1.93598e-22)
(0.0166137 -0.00329992 1.77738e-19)
(0.0126401 -0.00268296 3.06799e-19)
(0.00915007 -0.00188105 -4.45796e-19)
(0.00619762 -0.00112008 2.92501e-19)
(0.00384173 -0.000493811 -3.58159e-19)
(0.00220797 -0.000183256 2.12553e-19)
(0.00133821 -0.00027506 0)
(0.00111283 -0.000647361 0)
(0.00148631 -0.00106522 5.41515e-20)
(0.00199583 -0.00124371 2.52021e-20)
(0.00246094 -0.0012571 -6.03737e-20)
(0.00294057 -0.00119304 -5.31625e-22)
(0.00339396 -0.00111116 1.16174e-20)
(0.00395271 -0.00108058 -2.41098e-20)
(0.0257852 0.000981512 7.89007e-21)
(0.0249745 -0.00089805 1.51182e-20)
(0.0225679 -0.00249721 4.8699e-22)
(0.0193272 -0.00300321 -1.20194e-19)
(0.0160484 -0.00282351 -5.83978e-20)
(0.0130412 -0.00237047 2.57799e-19)
(0.0103274 -0.00185875 -2.1809e-19)
(0.0079273 -0.00137084 0)
(0.00598918 -0.001045 0)
(0.00467741 -0.00100999 4.74573e-20)
(0.00399837 -0.00122938 -2.22489e-20)
(0.00410977 -0.00150654 -2.19925e-20)
(0.00440115 -0.0016071 2.26883e-20)
(0.00468038 -0.00157585 5.03373e-22)
(0.00499842 -0.00149031 0)
(0.00531652 -0.00139469 -3.35553e-20)
(0.00579461 -0.00135289 3.29689e-20)
(0.02635 0.00110607 -6.85651e-21)
(0.0258215 -0.000353077 -1.38049e-20)
(0.0241991 -0.00173085 -3.24669e-20)
(0.0218392 -0.00246236 3.42634e-20)
(0.0192997 -0.00263365 -4.25942e-20)
(0.0168698 -0.00250424 -6.41556e-20)
(0.0145957 -0.00225718 1.13661e-20)
(0.0124824 -0.00196944 -1.43776e-19)
(0.010629 -0.00172601 -8.55901e-20)
(0.00918 -0.00163154 1.30707e-19)
(0.00819301 -0.00172649 0)
(0.0078328 -0.00187374 1.26335e-21)
(0.00776988 -0.00191784 -3.59314e-20)
(0.007773 -0.00186432 -7.60948e-20)
(0.00786153 -0.00177064 7.59495e-20)
(0.00798739 -0.00166952 1.10684e-20)
(0.00834779 -0.00161469 -5.71153e-20)
(0.0269448 0.0011729 0)
(0.0266522 6.83849e-05 -2.6985e-22)
(0.0256546 -0.0010254 2.89519e-20)
(0.0240798 -0.00179211 -4.68271e-21)
(0.0222626 -0.00217812 4.90126e-21)
(0.0204343 -0.00229943 0)
(0.0186719 -0.00227985 1.54067e-20)
(0.0169951 -0.00218513 8.62919e-20)
(0.0154645 -0.00206362 1.51677e-21)
(0.0141695 -0.00197299 -1.29399e-19)
(0.0131887 -0.00195807 0)
(0.0125216 -0.00199551 -1.10956e-19)
(0.0121208 -0.00202923 8.45736e-20)
(0.0118339 -0.00200925 3.13822e-20)
(0.0116629 -0.00194658 -5.85644e-20)
(0.0115579 -0.00186307 -3.00279e-20)
(0.0117665 -0.00179808 3.10243e-20)
(0.0276405 0.00115128 -1.11047e-20)
(0.0275335 0.000338395 1.15834e-21)
(0.0269927 -0.000472516 2.13169e-21)
(0.0260469 -0.00113825 3.347e-20)
(0.0248657 -0.00158811 0)
(0.023604 -0.00184973 2.08813e-20)
(0.0223471 -0.00198484 -2.14783e-20)
(0.0211331 -0.00203832 -7.52658e-20)
(0.0200008 -0.00203754 1.34236e-19)
(0.0189992 -0.00200687 0)
(0.0181737 -0.0019623 -6.80674e-20)
(0.0175905 -0.00192249 3.32894e-20)
(0.0170734 -0.00191208 9.80883e-20)
(0.0166084 -0.00191054 2.1348e-20)
(0.0162421 -0.00189816 6.72415e-20)
(0.0159405 -0.00186153 -3.33876e-20)
(0.0159878 -0.00180009 -2.28341e-20)
(0.0285228 0.0010144 8.39452e-21)
(0.0285487 0.000443454 0)
(0.0283249 -0.00012757 -4.19704e-21)
(0.0278346 -0.00063943 -8.60244e-21)
(0.0271493 -0.00104441 0)
(0.0263607 -0.00133547 0)
(0.0255436 -0.00153385 0)
(0.0247409 -0.00166535 1.11348e-19)
(0.0239751 -0.00174701 -7.61476e-20)
(0.0232632 -0.00178791 4.1861e-20)
(0.0226214 -0.0017911 0)
(0.0220876 -0.00175905 2.45996e-20)
(0.021614 -0.00171463 5.48377e-20)
(0.0211972 -0.00167295 -4.25458e-20)
(0.02082 -0.00163886 -6.3189e-20)
(0.020448 -0.00160449 1.22169e-19)
(0.0203821 -0.00154232 -4.73816e-20)
(0.000346224 -2.31527e-05 0)
(0.000687197 -2.17018e-05 0)
(0.00098735 -1.97383e-05 0)
(0.00127036 -1.6072e-05 0)
(0.00156809 -1.34615e-05 0)
(0.00184581 -1.30857e-05 0)
(0.00206748 -1.39992e-05 -3.9283e-23)
(0.00221792 -1.4864e-05 4.35589e-23)
(0.00230576 -1.46955e-05 5.18117e-23)
(0.00235058 -1.3433e-05 -6.0515e-23)
(0.00236417 -1.17847e-05 0)
(0.00234792 -9.99901e-06 -3.36494e-22)
(0.00231169 -7.94555e-06 3.82456e-22)
(0.00228056 -5.32757e-06 0)
(0.00223598 -3.74215e-07 0)
(0.00214753 6.88714e-06 0)
(0.000405147 -3.49236e-05 0)
(0.000794598 -2.90052e-05 0)
(0.00116208 -2.69556e-05 0)
(0.00150887 -2.75482e-05 0)
(0.00184727 -2.73798e-05 0)
(0.00215598 -2.36143e-05 -8.05612e-23)
(0.00242135 -1.75122e-05 8.32949e-23)
(0.00264112 -1.13962e-05 0)
(0.00282716 -6.96992e-06 0)
(0.00299438 -4.32188e-06 1.28389e-22)
(0.0031511 -2.45922e-06 -1.46945e-22)
(0.00330098 -1.1113e-06 -3.42527e-22)
(0.00344341 -9.10743e-07 3.84245e-22)
(0.00357714 -8.9096e-07 0)
(0.00367885 9.77623e-07 -9.34169e-22)
(0.00375009 7.89464e-06 2.10742e-21)
(0.000504215 -7.33846e-05 3.62316e-22)
(0.00093907 -6.35126e-05 -4.28349e-22)
(0.0013595 -5.93943e-05 2.59764e-22)
(0.00175209 -5.76606e-05 -2.75854e-22)
(0.00212244 -5.50476e-05 0)
(0.00245786 -4.85644e-05 0)
(0.00275598 -3.98229e-05 0)
(0.00301937 -3.1553e-05 0)
(0.00325728 -2.56389e-05 0)
(0.00347807 -2.19317e-05 0)
(0.00368579 -1.92488e-05 0)
(0.00388253 -1.70412e-05 0)
(0.00406476 -1.54949e-05 -4.99704e-22)
(0.00422963 -1.30483e-05 5.22956e-22)
(0.00436202 -7.63613e-06 -1.11592e-21)
(0.00448596 2.93995e-06 1.20316e-21)
(0.000657524 -0.000125781 -3.74537e-22)
(0.00113262 -0.000111627 -1.12453e-23)
(0.00159407 -0.000104924 4.75884e-22)
(0.00202042 -9.99386e-05 0)
(0.00241585 -9.37915e-05 0)
(0.00277358 -8.35667e-05 0)
(0.00309694 -7.14339e-05 0)
(0.00339022 -6.03744e-05 0)
(0.00365981 -5.2286e-05 0)
(0.00391013 -4.67726e-05 0)
(0.00414323 -4.24748e-05 0)
(0.00436063 -3.85341e-05 0)
(0.00455867 -3.48489e-05 -7.85036e-22)
(0.00473535 -2.96178e-05 8.08813e-22)
(0.00487852 -2.18657e-05 0)
(0.00501442 -9.83793e-06 0)
(0.00088386 -0.000197182 0)
(0.00139166 -0.000177983 0)
(0.00188288 -0.000167432 0)
(0.00233312 -0.000157553 4.86572e-22)
(0.00274723 -0.000146372 -4.84645e-22)
(0.00312251 -0.000131305 0)
(0.00346486 -0.000115007 0)
(0.00377877 -0.000100448 0)
(0.00406851 -8.93644e-05 0)
(0.00433629 -8.11362e-05 0)
(0.00458333 -7.43028e-05 0)
(0.0048109 -6.77077e-05 0)
(0.00501592 -6.09579e-05 -1.34842e-21)
(0.00519741 -5.20053e-05 1.37772e-21)
(0.0053448 -4.1058e-05 0)
(0.00548171 -2.60735e-05 1.48858e-21)
(0.00120886 -0.000292823 0)
(0.00173914 -0.000267324 0)
(0.00224848 -0.000251031 0)
(0.00271314 -0.000234284 9.35107e-22)
(0.00313907 -0.000216347 -9.31588e-22)
(0.00352632 -0.000195103 0)
(0.00388145 -0.000173523 -2.4894e-22)
(0.00420844 -0.000154371 2.54908e-22)
(0.00451005 -0.000139107 2.68326e-22)
(0.00478742 -0.000126933 -2.7369e-22)
(0.00504139 -0.000116333 0)
(0.00527306 -0.000105876 -1.17777e-21)
(0.00548007 -9.48837e-05 1.20073e-21)
(0.00566224 -8.10699e-05 0)
(0.00581012 -6.56401e-05 0)
(0.00594342 -4.57719e-05 -2.63003e-21)
(0.00166809 -0.000418891 -3.15109e-21)
(0.00220757 -0.000385267 0)
(0.00272214 -0.000360685 0)
(0.0031909 -0.000334743 -1.81522e-21)
(0.00362055 -0.000308056 8.86467e-22)
(0.00401282 -0.000279064 9.22612e-22)
(0.00437372 -0.000250785 0)
(0.00470641 -0.0002256 0)
(0.00501261 -0.000204619 0)
(0.00529298 -0.000186919 0)
(0.00554818 -0.000170972 0)
(0.00577914 -0.000155112 2.18878e-21)
(0.00598415 -0.000138366 -2.21935e-21)
(0.00616348 -0.00011823 2.29871e-21)
(0.00630865 -9.64637e-05 -2.32118e-21)
(0.0064355 -6.91957e-05 4.80002e-21)
(0.00231172 -0.000580813 6.47118e-21)
(0.00284359 -0.000536772 -3.30305e-21)
(0.00334838 -0.000500928 3.47439e-21)
(0.00380902 -0.000463394 -5.21874e-21)
(0.00423217 -0.000425851 1.75507e-21)
(0.00462034 -0.000387328 0)
(0.00497836 -0.000350577 -4.65903e-22)
(0.0053084 -0.000317525 4.70208e-22)
(0.00561149 -0.000288919 4.86716e-22)
(0.00588805 -0.000263776 -4.88772e-22)
(0.00613861 -0.000240562 0)
(0.00636387 -0.000217422 0)
(0.00656265 -0.000193065 -4.19439e-21)
(0.00673532 -0.000164816 4.23342e-21)
(0.00687429 -0.000134344 0)
(0.00699228 -9.66583e-05 4.44374e-21)
(0.00321121 -0.000781828 0)
(0.00371463 -0.000724916 0)
(0.00419143 -0.000674824 0)
(0.00462862 -0.000623533 0)
(0.00503185 -0.00057315 0)
(0.00540375 -0.000523236 0)
(0.00574757 -0.000476011 0)
(0.00606454 -0.000432968 0)
(0.00635516 -0.000394557 0)
(0.00661969 -0.000359782 0)
(0.00685848 -0.000327081 0)
(0.00707194 -0.000294463 0)
(0.00725919 -0.00026029 0)
(0.00742042 -0.000221759 0)
(0.00754891 -0.000179713 0)
(0.00765546 -0.00012814 0)
(0.00446836 -0.00101983 -1.25333e-20)
(0.00491774 -0.000948074 1.23119e-20)
(0.00534395 -0.000881481 6.36259e-21)
(0.00573787 -0.000814982 -1.26849e-20)
(0.00610338 -0.000750332 9.60025e-21)
(0.00644253 -0.000687419 -3.23337e-21)
(0.00675702 -0.000627804 0)
(0.00704719 -0.000572654 0)
(0.00731309 -0.000522243 0)
(0.00755478 -0.000475587 0)
(0.00777236 -0.000431061 0)
(0.00796584 -0.000386571 7.06216e-21)
(0.00813441 -0.000340135 -7.08569e-21)
(0.0082779 -0.000288823 -7.28343e-21)
(0.00839049 -0.000232048 7.30937e-21)
(0.00848247 -0.000162949 1.50091e-20)
(0.00622378 -0.00128177 0)
(0.00658847 -0.00119481 -1.15396e-20)
(0.00693611 -0.00111137 -2.67028e-22)
(0.00726137 -0.00102972 1.1412e-20)
(0.00756582 -0.000950645 0)
(0.00785042 -0.000874022 0)
(0.00811548 -0.000800832 0)
(0.0083606 -0.000732099 0)
(0.00858544 -0.000668058 0)
(0.00878979 -0.000607727 0)
(0.00897336 -0.000549367 0)
(0.00913569 -0.000490803 1.26209e-20)
(0.00927585 -0.000429774 -1.26334e-20)
(0.00939327 -0.000363202 0)
(0.00948305 -0.000288816 0)
(0.00955665 -0.000199094 0)
(0.00865339 -0.00153462 1.92724e-20)
(0.00889927 -0.00143546 -1.98916e-20)
(0.00913601 -0.00133834 1.95388e-20)
(0.00936218 -0.00124433 -1.00693e-20)
(0.00957709 -0.00115306 9.99048e-21)
(0.00978021 -0.00106405 -5.14978e-21)
(0.00997082 -0.000977998 7.72587e-21)
(0.010148 -0.00089601 -2.58582e-21)
(0.0103111 -0.000818376 -2.64217e-21)
(0.0104595 -0.000744048 7.94749e-21)
(0.0105925 -0.000671117 -5.29838e-21)
(0.0107092 -0.000597357 1.08315e-20)
(0.0108084 -0.000520398 1.10766e-20)
(0.0108892 -0.000437071 2.50396e-22)
(0.0109479 -0.000343693 -2.21855e-20)
(0.0109988 -0.000232277 2.2711e-20)
(0.0119165 -0.00171458 -3.09374e-20)
(0.0120145 -0.00161135 0)
(0.0121111 -0.00150876 0)
(0.0122092 -0.00140932 1.63674e-20)
(0.0123066 -0.00131177 -1.62782e-20)
(0.0124013 -0.00121535 -8.39058e-21)
(0.0124919 -0.00112083 8.34654e-21)
(0.0125775 -0.00102954 0)
(0.012657 -0.000941782 0)
(0.0127296 -0.00085631 8.69355e-21)
(0.0127941 -0.000771019 -8.6663e-21)
(0.0128493 -0.000683743 -1.77103e-20)
(0.0128939 -0.00059232 -2.00782e-22)
(0.0129272 -0.000493805 1.78691e-20)
(0.0129467 -0.000383933 0)
(0.0129713 -0.000254653 -3.68898e-20)
(0.0159823 -0.0017266 4.74518e-20)
(0.0159308 -0.00163454 -4.72312e-20)
(0.0158825 -0.00154075 -2.45605e-20)
(0.0158449 -0.00144789 2.44941e-20)
(0.0158156 -0.00135469 0)
(0.0157916 -0.00126071 0)
(0.0157718 -0.00116718 0)
(0.0157552 -0.00107555 0)
(0.0157409 -0.000985933 0)
(0.0157276 -0.000896808 0)
(0.0157142 -0.000805996 -1.36e-20)
(0.0156993 -0.000711656 1.3582e-20)
(0.0156823 -0.0006123 0)
(0.0156631 -0.000505852 -2.79631e-20)
(0.0156402 -0.000388779 2.79429e-20)
(0.0156388 -0.000253896 0)
(0.0202962 -0.0014829 0)
(0.0201598 -0.00141353 3.45653e-20)
(0.0200237 -0.00134198 -3.46345e-20)
(0.0199002 -0.00126931 -1.80436e-20)
(0.0197878 -0.00119439 1.80704e-20)
(0.0196839 -0.00111723 0)
(0.0195878 -0.0010391 0)
(0.0194993 -0.000961084 0)
(0.0194174 -0.000882887 0)
(0.0193413 -0.000802989 0)
(0.0192701 -0.000719659 1.99859e-20)
(0.0192033 -0.000631823 -1.99826e-20)
(0.019141 -0.000539041 0)
(0.0190839 -0.000440695 0)
(0.0190313 -0.000335318 0)
(0.0190129 -0.000217945 4.14857e-20)
(0.00183905 1.54908e-05 -2.42416e-21)
(0.00124279 9.22781e-06 3.11621e-21)
(0.00106435 -2.67599e-06 3.43154e-21)
(0.00102921 -1.46925e-05 0)
(0.0013563 -1.97635e-05 0)
(0.00130678 2.64189e-05 -5.51274e-21)
(0.00148703 0.000323427 -1.8227e-18)
(0.00195811 0.000815522 1.37696e-21)
(0.0023068 0.00135973 -1.44238e-21)
(0.00267407 0.0018923 6.33859e-18)
(0.00296019 0.00223697 3.97599e-18)
(0.00293575 0.00225683 -4.73476e-18)
(0.00403061 0.00340834 -3.23416e-18)
(0.0075241 0.00628725 -9.60132e-19)
(0.013292 0.00882522 -2.67699e-23)
(0.018886 0.0057027 -4.46092e-21)
(0.0138224 0.000476736 0)
(0.00375436 2.08537e-05 -1.31554e-21)
(0.00380755 1.92915e-05 -2.02109e-21)
(0.00377681 9.72044e-06 0)
(0.00371362 2.44169e-06 4.93969e-21)
(0.00347739 1.24531e-05 5.83307e-23)
(0.0028256 9.47574e-05 -5.80184e-21)
(0.00240769 0.000488263 1.49051e-21)
(0.0026053 0.00106061 2.80356e-22)
(0.0030181 0.00178132 -1.24558e-18)
(0.00381088 0.00269945 -3.48392e-21)
(0.00488333 0.00368056 -1.88989e-18)
(0.00605303 0.00468915 2.47034e-18)
(0.00725536 0.00578873 3.16134e-18)
(0.00931713 0.00739621 5.02669e-19)
(0.014581 0.00946918 -1.99271e-19)
(0.0202825 0.00613535 1.84046e-24)
(0.0176578 0.00083043 0)
(0.00457768 1.76316e-05 0)
(0.00472269 1.76844e-05 -5.16128e-21)
(0.00476184 1.43133e-05 7.94939e-21)
(0.00466184 1.94967e-05 -3.12396e-23)
(0.00432791 5.15094e-05 -1.15995e-20)
(0.00357662 0.000167103 -3.15687e-21)
(0.00300687 0.000630347 2.31393e-21)
(0.00313001 0.00125203 4.85992e-19)
(0.00357763 0.00204821 8.97924e-19)
(0.00447399 0.00307401 -9.16982e-19)
(0.00573301 0.00421216 -9.9019e-22)
(0.00714048 0.00541457 0)
(0.00849842 0.00671651 -8.43262e-19)
(0.01064 0.00825901 0)
(0.0158442 0.00995687 2.00333e-19)
(0.0215538 0.00639248 3.6095e-24)
(0.0197864 0.000961464 0)
(0.00510955 4.4416e-06 -1.8788e-21)
(0.00521903 9.1201e-06 -4.18359e-21)
(0.00525433 1.85651e-05 -4.62942e-21)
(0.00514111 4.2237e-05 -9.32222e-21)
(0.0048275 0.000105191 2.34851e-20)
(0.00411753 0.000254348 2.16188e-21)
(0.00353855 0.000764092 9.47578e-19)
(0.00363465 0.00142244 1.60513e-21)
(0.00410743 0.00226714 -7.40656e-19)
(0.0050538 0.00333736 7.05731e-19)
(0.00636958 0.00451967 -7.06824e-19)
(0.00781743 0.00577524 -1.40852e-21)
(0.00935626 0.00721792 -5.82285e-19)
(0.0118139 0.00884914 1.08876e-22)
(0.0170421 0.0102602 5.05218e-23)
(0.0226402 0.00654056 -2.10263e-22)
(0.0212821 0.00116023 8.15786e-21)
(0.00556755 -8.83748e-06 1.53573e-21)
(0.00564156 1.87774e-06 -2.24294e-23)
(0.0056584 2.56576e-05 3.42768e-21)
(0.00553989 7.15977e-05 -1.05488e-20)
(0.00525388 0.000171193 -1.00896e-20)
(0.00461015 0.000357394 0)
(0.00406895 0.000901213 -3.54156e-21)
(0.00416224 0.00158748 2.79864e-21)
(0.00466155 0.00246431 -6.48539e-19)
(0.00564118 0.00355123 -1.2039e-18)
(0.00698166 0.00474433 5.78819e-19)
(0.00845595 0.00602553 0)
(0.0101554 0.00755392 9.41927e-19)
(0.0129243 0.00923652 -3.31563e-22)
(0.0181573 0.0103663 -1.80142e-19)
(0.0235238 0.00658004 -2.74588e-21)
(0.0224397 0.00137623 -1.29726e-20)
(0.00601693 -2.21642e-05 -2.67104e-21)
(0.0060624 -2.94547e-06 -2.72519e-21)
(0.00606073 3.6871e-05 -2.86343e-21)
(0.00594008 0.000107646 1.76833e-20)
(0.00568001 0.000247353 -1.14752e-20)
(0.00511203 0.000475505 6.11286e-20)
(0.00463391 0.00104539 -3.75436e-19)
(0.00474403 0.00175356 3.35323e-19)
(0.00527633 0.00265066 5.87494e-19)
(0.00628424 0.00373794 1.07799e-18)
(0.00763959 0.004927 0)
(0.00914802 0.00622264 1.79622e-21)
(0.0110029 0.00778758 -8.11889e-19)
(0.0140323 0.00943763 2.8846e-19)
(0.0191896 0.0102539 3.50043e-19)
(0.0242027 0.00650669 2.94799e-21)
(0.0233717 0.00159995 5.30893e-21)
(0.00649559 -3.54033e-05 9.65185e-21)
(0.00651917 -4.45428e-06 9.83643e-21)
(0.00650237 5.34438e-05 7.60362e-23)
(0.00638288 0.000151434 1.563e-20)
(0.00614838 0.000333166 0)
(0.00566172 0.000607754 -8.7544e-20)
(0.00526478 0.00119761 0)
(0.00541075 0.00192251 -6.03802e-19)
(0.00598644 0.00282915 -4.22291e-21)
(0.0070239 0.00390504 -4.51734e-21)
(0.00839448 0.0050811 -3.5564e-21)
(0.00995249 0.00637928 0)
(0.0119621 0.00792859 3.64716e-19)
(0.015179 0.00944862 -2.74356e-19)
(0.0201457 0.00990975 -1.69132e-19)
(0.0246911 0.00632006 0)
(0.0241303 0.00182411 0)
(0.00703788 -4.85865e-05 -1.33021e-20)
(0.00704494 -1.96169e-06 -1.79866e-20)
(0.00701817 7.66827e-05 9.19013e-21)
(0.00690461 0.000204283 -9.35423e-21)
(0.0066984 0.000428154 -1.87074e-20)
(0.00629751 0.000751573 4.963e-20)
(0.00599713 0.00135548 0)
(0.0061989 0.00209177 5.69302e-19)
(0.00683099 0.00299751 2.44577e-19)
(0.00790354 0.0040523 -4.41668e-19)
(0.00929683 0.00520671 -4.12363e-19)
(0.0109224 0.00648764 -1.46861e-22)
(0.0130797 0.00795926 -2.61157e-21)
(0.016391 0.00925205 0)
(0.0210354 0.00933712 -1.48103e-19)
(0.0250193 0.00602719 4.86969e-23)
(0.0247464 0.00203848 -5.55785e-22)
(0.0076848 -6.15763e-05 -1.64177e-20)
(0.00767935 5.1107e-06 8.25206e-21)
(0.00764917 0.000107646 -1.69307e-20)
(0.00754832 0.000266842 0)
(0.00737692 0.000530655 1.72587e-20)
(0.00706663 0.000901228 -1.78687e-20)
(0.00687859 0.00151282 0)
(0.00715629 0.00225338 -1.84322e-20)
(0.00785878 0.00314724 -2.64609e-21)
(0.00897472 0.00417129 1.30326e-20)
(0.0104024 0.00529114 1.35845e-20)
(0.0121094 0.0065215 -5.41573e-21)
(0.0143877 0.00784338 2.085e-21)
(0.0176778 0.00882802 -1.52728e-21)
(0.0218694 0.00855978 7.58062e-20)
(0.0252342 0.00564025 0)
(0.0252468 0.00222519 5.24351e-22)
(0.00849266 -7.40141e-05 8.89831e-23)
(0.00847737 1.70107e-05 3.01828e-20)
(0.00845167 0.000146643 1.55956e-20)
(0.00837287 0.000338205 -4.6942e-20)
(0.0082468 0.000636802 3.0713e-20)
(0.00803375 0.0010463 -9.63244e-20)
(0.00797541 0.00165742 3.10371e-20)
(0.00834797 0.00239179 -2.33872e-19)
(0.009133 0.00326088 -1.84452e-19)
(0.0103001 0.00424152 3.46374e-19)
(0.0117716 0.00530436 3.51927e-19)
(0.0135572 0.00643497 -9.66394e-21)
(0.0158965 0.00753361 -2.49425e-19)
(0.0190299 0.00816634 -6.39647e-22)
(0.0226592 0.00762291 6.68857e-20)
(0.0253973 0.00517403 -8.97566e-23)
(0.0256631 0.00236019 9.54744e-23)
(0.00954335 -8.51259e-05 -1.33052e-20)
(0.00952 3.33654e-05 2.69224e-20)
(0.00950829 0.000192308 -2.6992e-20)
(0.00946513 0.000414995 0)
(0.00939783 0.000739477 0)
(0.00929173 0.00117092 5.57254e-20)
(0.00937821 0.00176806 -2.12973e-19)
(0.00986237 0.00248081 4.97922e-20)
(0.010734 0.00330814 -2.23813e-19)
(0.0119508 0.00422495 -3.29913e-19)
(0.0134595 0.00519497 1.44059e-19)
(0.015287 0.00616653 -1.19522e-19)
(0.0175868 0.00698699 3.27239e-19)
(0.0204215 0.00728171 -8.46106e-20)
(0.0234217 0.00658829 6.15288e-20)
(0.0255777 0.00464359 1.23809e-22)
(0.0260364 0.00241709 -1.29158e-22)
(0.0109564 -9.36237e-05 -3.43759e-20)
(0.0109269 5.24379e-05 -1.21305e-20)
(0.010941 0.000239487 9.2465e-20)
(0.0109534 0.000489164 5.67689e-22)
(0.0109639 0.000827737 -9.20623e-20)
(0.0109791 0.00125527 4.58801e-20)
(0.0112202 0.00181556 1.76077e-19)
(0.0118148 0.00248341 0)
(0.0127536 0.00324429 1.51446e-19)
(0.0139922 0.00406558 1.66695e-19)
(0.0154946 0.00489714 -1.5722e-19)
(0.0172803 0.00565887 2.18337e-19)
(0.0194083 0.00619068 -5.52984e-21)
(0.0218238 0.00622464 1.49716e-19)
(0.0241875 0.00552217 -5.62003e-20)
(0.0258447 0.00406325 -7.27435e-22)
(0.0264187 0.002373 -9.34872e-21)
(0.0128942 -9.81577e-05 -1.89003e-20)
(0.0128618 6.91837e-05 7.46826e-20)
(0.012916 0.000275454 -7.44062e-20)
(0.013003 0.00053833 -3.7736e-20)
(0.0131267 0.000872512 1.8242e-19)
(0.013293 0.00127219 -7.15944e-20)
(0.0136577 0.00177312 -6.59248e-20)
(0.0143207 0.00236503 -6.35673e-20)
(0.0152641 0.00302392 1.15822e-19)
(0.0164499 0.00370938 -3.14385e-20)
(0.0178535 0.00436209 -7.16042e-20)
(0.0194738 0.00489653 -4.85199e-21)
(0.0212986 0.00518613 -1.55017e-19)
(0.0232265 0.00507702 -6.60138e-20)
(0.0250063 0.00448044 -5.56036e-20)
(0.0262595 0.00344732 2.50797e-20)
(0.0268742 0.00221569 1.96372e-20)
(0.0155254 -9.72465e-05 0)
(0.0154941 7.46975e-05 -1.43159e-20)
(0.0155941 0.000280532 -2.86612e-20)
(0.01576 0.000531286 -1.84237e-22)
(0.0159897 0.000834131 -2.76254e-20)
(0.0162871 0.00118534 0)
(0.0167362 0.00160933 1.01517e-19)
(0.017392 0.00209532 9.38222e-20)
(0.0182417 0.00261703 -1.83091e-19)
(0.0192654 0.00313465 -8.7101e-20)
(0.020451 0.00359448 4.33041e-20)
(0.0217845 0.00392937 -5.355e-20)
(0.0232197 0.00406298 8.27229e-20)
(0.0246598 0.00392521 -3.31348e-21)
(0.0259457 0.00349473 5.46008e-20)
(0.02688 0.00280479 -2.16559e-20)
(0.0274852 0.00194157 -2.23325e-20)
(0.0188707 -8.96493e-05 -1.23777e-19)
(0.0188349 6.40497e-05 9.41058e-20)
(0.0189558 0.000247419 0)
(0.019161 0.000465014 -1.00583e-19)
(0.0194408 0.000720902 7.80453e-20)
(0.019797 0.00101536 -3.67738e-20)
(0.0202398 0.0013569 -7.08925e-20)
(0.0207939 0.0017288 1.37548e-19)
(0.0214578 0.00210519 -2.50439e-21)
(0.0222342 0.00245563 6.28342e-20)
(0.0231271 0.00274438 -3.80262e-21)
(0.0241227 0.00293301 -2.73127e-21)
(0.0251701 0.00298615 0)
(0.026193 0.00287564 -6.01713e-21)
(0.0270941 0.00259322 6.46741e-21)
(0.027785 0.00213989 0)
(0.0283387 0.00156079 2.0498e-20)
(0.0295455 0.000805641 1.14907e-20)
(0.0296446 0.000412073 -6.62427e-22)
(0.0295887 2.11919e-05 0)
(0.0293388 -0.000349493 -3.82162e-20)
(0.028927 -0.000672698 0)
(0.0284137 -0.000931694 -1.96837e-20)
(0.0278608 -0.00112669 0)
(0.0273028 -0.00127024 -3.01435e-20)
(0.0267495 -0.00137494 -2.15639e-20)
(0.0262044 -0.00144683 -3.33546e-20)
(0.0256746 -0.0014859 4.70318e-20)
(0.025181 -0.00149042 -4.79094e-20)
(0.0247405 -0.0014691 5.10147e-20)
(0.0243634 -0.00143043 -1.23344e-20)
(0.0240513 -0.00138035 -2.71338e-20)
(0.023767 -0.00132459 0)
(0.0236805 -0.0012504 0)
(0.0304149 0.000619929 -1.33001e-20)
(0.0305371 0.000329149 -4.05007e-21)
(0.0305446 4.94156e-05 0)
(0.0304127 -0.000215318 3.7254e-20)
(0.0301567 -0.00045426 0)
(0.029812 -0.000656057 2.37174e-20)
(0.0294217 -0.000815424 6.23392e-21)
(0.0290131 -0.000936687 -6.17499e-21)
(0.0285958 -0.00102804 0)
(0.0281741 -0.00109521 -2.66234e-20)
(0.0277536 -0.00113985 -2.72645e-20)
(0.0273492 -0.00116099 2.82607e-20)
(0.0269774 -0.00116078 -2.93482e-20)
(0.0266501 -0.00114336 -3.08552e-20)
(0.0263721 -0.00111246 1.5685e-20)
(0.0261243 -0.00106993 -8.29529e-21)
(0.0260104 -0.00100737 0)
(0.0310127 0.000470779 -5.70397e-22)
(0.0311522 0.000244917 5.63036e-21)
(0.0312005 3.57175e-05 -5.40517e-22)
(0.0311389 -0.000161643 -1.57658e-20)
(0.0309769 -0.000343646 0)
(0.030738 -0.000501577 0)
(0.0304522 -0.000629197 -3.45002e-20)
(0.0301404 -0.000727844 1.93748e-20)
(0.0298124 -0.000803115 -2.3893e-20)
(0.0294735 -0.000859598 3.21645e-20)
(0.0291298 -0.000899083 -2.46728e-20)
(0.0287924 -0.000921062 -2.53339e-20)
(0.0284735 -0.000926244 8.9524e-21)
(0.028183 -0.000916814 0)
(0.027926 -0.000895231 -1.94381e-20)
(0.0276932 -0.000862547 2.96328e-20)
(0.0275531 -0.0008098 2.99887e-20)
(0.0313649 0.000351381 0)
(0.0315225 0.000166269 -2.21496e-21)
(0.0316037 5.68772e-06 -1.22519e-20)
(0.0315918 -0.000143894 1.89132e-21)
(0.0314942 -0.000283196 -1.20291e-21)
(0.031328 -0.000405028 0)
(0.0311145 -0.000503476 3.75281e-20)
(0.0308697 -0.000579097 -1.90529e-20)
(0.0306031 -0.000636497 1.94117e-20)
(0.0303215 -0.000679658 1.47581e-20)
(0.030031 -0.000710143 5.57856e-20)
(0.0297406 -0.00072733 -1.02293e-20)
(0.0294589 -0.000731356 -3.24738e-20)
(0.0291935 -0.000723956 1.08237e-20)
(0.0289495 -0.000707714 1.17096e-20)
(0.0287241 -0.000684049 -5.71878e-21)
(0.0285627 -0.000641554 -2.41882e-20)
(0.0315118 0.000252201 0)
(0.0316878 9.46095e-05 1.32881e-21)
(0.0317964 -2.86579e-05 1.38216e-20)
(0.0318214 -0.000141808 7.82253e-22)
(0.0317706 -0.000248055 -2.24474e-21)
(0.0316571 -0.000340817 2.48401e-20)
(0.0314957 -0.000414617 0)
(0.0312988 -0.000469984 -2.36023e-20)
(0.0310759 -0.000511294 -3.04231e-21)
(0.0308349 -0.000542199 2.74164e-20)
(0.0305826 -0.000563779 -2.49023e-20)
(0.0303259 -0.000574852 1.27854e-20)
(0.0300708 -0.000575106 1.32292e-20)
(0.0298225 -0.00056666 -2.76054e-20)
(0.029586 -0.000553243 1.44448e-20)
(0.0293644 -0.000537451 1.5079e-20)
(0.0291851 -0.000503831 0)
(0.0314863 0.000169893 0)
(0.0316769 3.21687e-05 2.51035e-21)
(0.0318059 -6.1093e-05 8.10957e-21)
(0.031858 -0.00014582 0)
(0.0318427 -0.000226206 -9.2742e-22)
(0.0317693 -0.000295751 -2.96611e-20)
(0.0316469 -0.000349272 3.59539e-21)
(0.0314855 -0.000387522 1.45114e-20)
(0.0312947 -0.000415074 1.29292e-20)
(0.0310835 -0.000435452 -4.50546e-20)