0.0010258 	2.45513e-05 	1.08245e-06 	-3.70252e-08
0.00334978 	7.89743e-05 	3.49211e-06 	-1.20198e-07
0.00630145 	0.000152761 	6.82327e-06 	-1.83388e-07
0.00983054 	0.000287209 	1.34511e-05 	5.29067e-08
0.0138765 	0.000511453 	2.52753e-05 	7.88686e-07
0.0183825 	0.000799651 	4.10688e-05 	1.84838e-06
0.0233014 	0.00113013 	6.00114e-05 	3.13968e-06
0.0285978 	0.00148595 	8.22709e-05 	4.48132e-06
0.0342466 	0.00184613 	0.000107275 	5.60924e-06
0.0402317 	0.00220197 	0.000133909 	6.46963e-06
0.046544 	0.0025468 	0.000161811 	7.02757e-06
0.0531797 	0.00287398 	0.000190366 	7.09167e-06
0.0601391 	0.00318283 	0.000219072 	6.38438e-06
0.0674258 	0.0034752 	0.000248054 	4.73506e-06
0.0750453 	0.00375078 	0.000277065 	1.90176e-06
0.0830049 	0.00400989 	0.000305577 	-2.2262e-06
0.0913134 	0.00425492 	0.000333874 	-7.36765e-06
0.0999802 	0.00448604 	0.000361721 	-1.32341e-05
0.109016 	0.00470414 	0.000389125 	-1.95203e-05
0.11843 	0.00491032 	0.000416055 	-2.58956e-05
0.128235 	0.00510527 	0.000442271 	-3.21005e-05
0.138442 	0.00529127 	0.000468098 	-3.79279e-05
0.149063 	0.00546974 	0.000493623 	-4.30208e-05
0.160109 	0.00564209 	0.000518814 	-4.70578e-05
0.171593 	0.00580998 	0.000543747 	-4.99454e-05
0.183525 	0.00597376 	0.000568087 	-5.15987e-05
0.195919 	0.00613483 	0.000592536 	-5.2156e-05
0.208786 	0.00629382 	0.000616318 	-5.23087e-05
0.222137 	0.00645245 	0.000639443 	-5.2973e-05
0.235985 	0.00661271 	0.000662667 	-5.50576e-05
0.25034 	0.00677506 	0.000685355 	-5.83746e-05
0.265214 	0.00693967 	0.000707283 	-6.25557e-05
0.280617 	0.00710675 	0.000728715 	-6.71904e-05
0.29656 	0.00727636 	0.000749989 	-7.26765e-05
0.313054 	0.00744937 	0.000771409 	-7.93691e-05
0.330107 	0.00762588 	0.000790956 	-8.58596e-05
0.347729 	0.00780772 	0.000808636 	-9.02109e-05
0.365928 	0.00799743 	0.000824669 	-9.35503e-05
0.384713 	0.00819532 	0.000839642 	-9.76666e-05
0.404089 	0.00840145 	0.000853876 	-0.000101749
0.424065 	0.00861563 	0.000866443 	-0.000103693
0.444646 	0.00883745 	0.000878149 	-0.000104494
0.465836 	0.00906716 	0.000889357 	-0.000105219
0.48764 	0.00930409 	0.000897388 	-0.000107344
0.51006 	0.00954905 	0.000904263 	-0.000112388
0.533099 	0.0098025 	0.000909785 	-0.000119039
0.556758 	0.0100627 	0.000915051 	-0.000124388
0.581036 	0.010326 	0.000919703 	-0.000126429
0.605933 	0.0105946 	0.000923444 	-0.000127722
0.631446 	0.0108757 	0.000926805 	-0.000127643
0.657571 	0.0111717 	0.000930644 	-0.000127373
0.684304 	0.0114779 	0.000933937 	-0.000124989
0.711638 	0.0117994 	0.000934833 	-0.000117361
0.739566 	0.0121371 	0.000935491 	-0.000106554
0.768079 	0.0124858 	0.000934842 	-0.000103697
0.797167 	0.012843 	0.000934344 	-0.000107011
0.826818 	0.0132131 	0.000933531 	-0.000112896
0.85702 	0.0135872 	0.000935107 	-0.000122162
0.887757 	0.0139656 	0.00093295 	-0.000132232
0.919015 	0.0143557 	0.000930366 	-0.000138997
0.950776 	0.0147557 	0.000930402 	-0.000141077
0.983022 	0.0151635 	0.000928964 	-0.000138793
1.01573 	0.0155759 	0.000929257 	-0.000133414
1.04889 	0.0159899 	0.000931743 	-0.000127755
1.08246 	0.0164023 	0.000933448 	-0.000117007
1.11644 	0.0168211 	0.000932539 	-0.000101788
1.15078 	0.0172513 	0.000934535 	-8.70827e-05
1.18548 	0.0176948 	0.000937084 	-6.99969e-05
1.22049 	0.0181391 	0.000938949 	-4.85605e-05
1.25579 	0.0185775 	0.000941256 	-2.46145e-05
1.29136 	0.0190144 	0.000942359 	1.34242e-06
1.32715 	0.0194502 	0.000943217 	2.87407e-05
1.36315 	0.0198857 	0.000943947 	5.07025e-05
1.39931 	0.0203167 	0.000944325 	6.46563e-05
1.43561 	0.0207409 	0.000944844 	7.41114e-05
1.47202 	0.0211631 	0.000946434 	8.27833e-05
1.50849 	0.0215784 	0.000948798 	8.31646e-05
1.54499 	0.0219839 	0.000950903 	7.62167e-05
1.5815 	0.0223786 	0.00095231 	7.04661e-05
1.61797 	0.022763 	0.000952197 	7.02517e-05
1.65438 	0.0231362 	0.000950071 	6.74812e-05
1.69068 	0.0234939 	0.000947053 	6.41203e-05
1.72684 	0.0238315 	0.00094256 	6.49519e-05
1.76284 	0.0241522 	0.000937113 	6.76858e-05
1.79863 	0.0244528 	0.00092958 	7.26517e-05
1.83418 	0.0247324 	0.000919436 	7.88954e-05
1.86946 	0.0249964 	0.000907605 	8.41565e-05
1.90445 	0.0252492 	0.000895011 	8.85772e-05
1.9391 	0.0254899 	0.00088152 	9.18605e-05
1.97339 	0.0257193 	0.000867452 	9.53687e-05
2.00729 	0.0259355 	0.000852252 	0.000100708
2.04077 	0.0261382 	0.000836702 	0.000107326
2.07381 	0.0263267 	0.00082039 	0.000111515
2.10639 	0.0265016 	0.000803137 	0.000113129
2.13848 	0.0266626 	0.000784554 	0.00010946
2.17005 	0.0268124 	0.000765663 	0.000102865
2.2011 	0.0269524 	0.000747548 	9.54703e-05
2.23159 	0.0270819 	0.00072961 	8.94684e-05
2.26152 	0.0271997 	0.000711668 	8.39493e-05
2.29087 	0.027305 	0.000693476 	7.80216e-05
2.31963 	0.0273988 	0.000675037 	7.2e-05
2.34778 	0.027481 	0.000656988 	6.67044e-05
2.37531 	0.0275505 	0.000638496 	6.34656e-05
2.40222 	0.0276079 	0.000620279 	6.27356e-05
2.42849 	0.0276538 	0.000601974 	6.40206e-05
2.45413 	0.027688 	0.000584437 	6.4725e-05
2.47913 	0.0277093 	0.00056709 	6.3689e-05
2.50348 	0.0277169 	0.000550138 	6.16741e-05
2.52719 	0.0277102 	0.00053352 	5.98634e-05
2.55026 	0.0276887 	0.000517241 	5.90435e-05
2.57268 	0.0276526 	0.000501305 	5.9833e-05
2.59446 	0.027601 	0.000485729 	6.16038e-05
2.61561 	0.0275324 	0.000470431 	6.33788e-05
2.63613 	0.0274457 	0.000455382 	6.48395e-05
2.65602 	0.0273416 	0.000440506 	6.62278e-05
2.67529 	0.0272211 	0.000425841 	6.82939e-05
2.69396 	0.0270847 	0.00041146 	7.11184e-05
2.71202 	0.0269327 	0.000397281 	7.36521e-05
2.72949 	0.0267651 	0.000383196 	7.47719e-05
2.74638 	0.0265825 	0.00036919 	7.37233e-05
2.7627 	0.026386 	0.000355407 	7.10496e-05
2.77846 	0.0261763 	0.000341689 	6.79284e-05
2.79367 	0.0259537 	0.000328109 	6.50915e-05
2.80835 	0.0257197 	0.000314675 	6.26683e-05
2.8225 	0.0254738 	0.000301231 	6.0682e-05
2.83614 	0.0252172 	0.000287607 	5.89908e-05
2.84927 	0.0249495 	0.000273817 	5.7379e-05
2.86193 	0.0246708 	0.000259939 	5.57636e-05
2.87411 	0.0243813 	0.000246058 	5.41187e-05
2.88582 	0.0240787 	0.000232049 	5.24416e-05
2.89709 	0.0237595 	0.000217925 	5.06039e-05
2.90793 	0.0234219 	0.000203666 	4.84047e-05
2.91834 	0.0230626 	0.000189322 	4.59123e-05
2.92834 	0.0226762 	0.000174914 	4.3428e-05
2.93795 	0.0222562 	0.000160331 	4.11075e-05
2.94717 	0.0217938 	0.000145607 	3.88877e-05
2.95601 	0.0212768 	0.000130896 	3.67758e-05
2.96448 	0.0206903 	0.000116239 	3.48568e-05
2.9726 	0.020018 	0.000101658 	3.31055e-05
2.98037 	0.0192271 	8.71877e-05 	3.14202e-05
2.9878 	0.0182623 	7.29238e-05 	2.98147e-05
2.99488 	0.0170789 	5.90572e-05 	2.82604e-05
3.00163 	0.0156677 	4.57996e-05 	2.65464e-05
3.00802 	0.0139455 	3.35707e-05 	2.41729e-05
3.01405 	0.0118182 	2.2884e-05 	2.06978e-05
3.01971 	0.00936965 	1.38982e-05 	1.63511e-05
3.02495 	0.00670768 	7.13934e-06 	1.15576e-05
3.02973 	0.00395973 	3.08726e-06 	6.73543e-06
