0.00102579 	0.000102908 	-6.42408e-08 	-2.16058e-06
0.00203127 	0.000206348 	-1.28814e-07 	-4.33235e-06
0.00325132 	0.000324823 	-2.02722e-07 	-6.82007e-06
0.0058838 	0.000580556 	-3.62244e-07 	-1.21905e-05
0.00889561 	0.000875058 	-7.29806e-07 	-1.82135e-05
0.0122408 	0.00120631 	-1.5036e-06 	-2.46657e-05
0.0158868 	0.00156429 	-2.57529e-06 	-3.14884e-05
0.0198092 	0.0019225 	-3.96814e-06 	-3.83533e-05
0.0239917 	0.00226533 	-5.8329e-06 	-4.49649e-05
0.0284241 	0.00258899 	-8.21569e-06 	-5.10978e-05
0.0331018 	0.00288521 	-1.11931e-05 	-5.64411e-05
0.0380237 	0.0031572 	-1.47394e-05 	-6.10375e-05
0.0431921 	0.00340622 	-1.88228e-05 	-6.48904e-05
0.0486116 	0.0036355 	-2.34262e-05 	-6.80383e-05
0.0542883 	0.00384767 	-2.85323e-05 	-7.04359e-05
0.0602299 	0.00404349 	-3.41552e-05 	-7.20358e-05
0.0664452 	0.00422659 	-4.02968e-05 	-7.30303e-05
0.0729439 	0.0043961 	-4.70422e-05 	-7.34721e-05
0.0797362 	0.00455402 	-5.44194e-05 	-7.34183e-05
0.0868332 	0.00470348 	-6.24437e-05 	-7.29157e-05
0.0942464 	0.00484468 	-7.11883e-05 	-7.1851e-05
0.101988 	0.00497784 	-8.06264e-05 	-7.01568e-05
0.11007 	0.00510461 	-9.07938e-05 	-6.78006e-05
0.118505 	0.00522688 	-0.000101668 	-6.47783e-05
0.127306 	0.00534552 	-0.000113271 	-6.11418e-05
0.136488 	0.00546126 	-0.000125515 	-5.69649e-05
0.146063 	0.00557475 	-0.000138258 	-5.25222e-05
0.156046 	0.00568657 	-0.00015145 	-4.80657e-05
0.166451 	0.00579743 	-0.000165191 	-4.35686e-05
0.177292 	0.00590828 	-0.000179508 	-3.90489e-05
0.188585 	0.00602012 	-0.000194606 	-3.47247e-05
0.200343 	0.00613431 	-0.000210532 	-3.11295e-05
0.212583 	0.00625175 	-0.000227524 	-2.85343e-05
0.225318 	0.00637285 	-0.000245675 	-2.71232e-05
0.238565 	0.00649785 	-0.000264778 	-2.69909e-05
0.252337 	0.00662704 	-0.000284759 	-2.7674e-05
0.266651 	0.00676124 	-0.000305315 	-2.86204e-05
0.28152 	0.00690161 	-0.000326098 	-2.93908e-05
0.296961 	0.00704865 	-0.00034691 	-2.95406e-05
0.312986 	0.00720234 	-0.000368113 	-3.00816e-05
0.32961 	0.00736216 	-0.000389675 	-3.27004e-05
0.346847 	0.00752677 	-0.00041172 	-3.80572e-05
0.364709 	0.00769622 	-0.000434171 	-4.64583e-05
0.38321 	0.00787258 	-0.000456942 	-5.6907e-05
0.402362 	0.00805744 	-0.000479889 	-6.74979e-05
0.422175 	0.00825218 	-0.000502816 	-7.65673e-05
0.442659 	0.00845827 	-0.000525576 	-8.37844e-05
0.463825 	0.00867666 	-0.000547764 	-9.06972e-05
0.485681 	0.00890891 	-0.000570178 	-9.87943e-05
0.508233 	0.00915551 	-0.000593089 	-0.000108442
0.531487 	0.00941392 	-0.000616037 	-0.000116793
0.555448 	0.00968262 	-0.000638607 	-0.000121049
0.58012 	0.00996338 	-0.000660439 	-0.000123845
0.605503 	0.010258 	-0.000681192 	-0.000129756
0.631598 	0.0105675 	-0.000700914 	-0.000139822
0.658402 	0.0108956 	-0.000719469 	-0.000150121
0.685912 	0.0112462 	-0.000737191 	-0.000156578
0.714123 	0.0116181 	-0.000753542 	-0.000157168
0.743026 	0.0120071 	-0.000768765 	-0.000151592
0.772613 	0.0124095 	-0.000782345 	-0.00014375
0.802872 	0.0128257 	-0.000793623 	-0.000136891
0.833789 	0.0132525 	-0.000802648 	-0.000130479
0.865349 	0.0136841 	-0.000809309 	-0.000123934
0.897534 	0.0141206 	-0.000812836 	-0.00011627
0.930323 	0.014568 	-0.000813456 	-0.000107535
0.963695 	0.0150288 	-0.000811816 	-9.89235e-05
0.997626 	0.0155023 	-0.000808506 	-9.11338e-05
1.03209 	0.0159834 	-0.000802805 	-8.38932e-05
1.06706 	0.0164658 	-0.000794526 	-7.21922e-05
1.1025 	0.0169481 	-0.00078235 	-5.71386e-05
1.13839 	0.0174323 	-0.000766317 	-3.7794e-05
1.17469 	0.0179184 	-0.000747279 	-1.58064e-05
1.21136 	0.018411 	-0.000724496 	1.88483e-07
1.24837 	0.0189133 	-0.000698338 	1.24823e-05
1.28569 	0.0194204 	-0.000669621 	2.26533e-05
1.32327 	0.0199205 	-0.000639516 	2.81513e-05
1.36107 	0.0204041 	-0.000608071 	3.2388e-05
1.39905 	0.0208673 	-0.000576538 	4.04796e-05
1.43718 	0.0213097 	-0.000545696 	5.13079e-05
1.47541 	0.0217347 	-0.000516273 	6.31942e-05
1.51369 	0.0221465 	-0.000487533 	6.93944e-05
1.552 	0.0225446 	-0.000459438 	6.59562e-05
1.59028 	0.0229253 	-0.000431644 	6.39126e-05
1.62849 	0.0232868 	-0.000404192 	6.77932e-05
1.66659 	0.0236325 	-0.000377344 	6.99027e-05
1.70455 	0.0239598 	-0.000351532 	7.04906e-05
1.74231 	0.0242642 	-0.000327948 	7.1908e-05
1.77985 	0.0245463 	-0.00030633 	7.59102e-05
1.81712 	0.0248093 	-0.000286066 	8.30912e-05
1.85409 	0.0250555 	-0.000266945 	9.18322e-05
1.89072 	0.0252885 	-0.000248407 	9.98765e-05
1.92697 	0.0255117 	-0.000230319 	0.000105185
1.96282 	0.0257239 	-0.000213056 	0.00010914
1.99823 	0.0259225 	-0.000197076 	0.000110348
2.03317 	0.0261066 	-0.000182495 	0.000107738
2.06761 	0.0262783 	-0.000168972 	0.000103335
2.10153 	0.0264383 	-0.00015644 	9.75323e-05
2.13491 	0.0265888 	-0.00014481 	9.05114e-05
2.16771 	0.0267316 	-0.000133727 	8.37632e-05
2.19993 	0.0268651 	-0.000123227 	7.81376e-05
2.23154 	0.0269864 	-0.000113366 	7.31007e-05
2.26253 	0.027094 	-0.000104036 	6.835e-05
2.29287 	0.0271871 	-9.51833e-05 	6.43483e-05
2.32257 	0.0272666 	-8.69179e-05 	6.18364e-05
2.3516 	0.0273345 	-7.92279e-05 	5.99748e-05
2.37996 	0.0273923 	-7.19928e-05 	5.86217e-05
2.40764 	0.02744 	-6.50927e-05 	5.88287e-05
2.43464 	0.0274767 	-5.84575e-05 	6.02475e-05
2.46095 	0.0275016 	-5.21247e-05 	6.12424e-05
2.48657 	0.0275144 	-4.61226e-05 	6.21891e-05
2.5115 	0.0275147 	-4.03139e-05 	6.38835e-05
2.53574 	0.0275015 	-3.46421e-05 	6.63058e-05
2.5593 	0.0274732 	-2.90906e-05 	6.84812e-05
2.58217 	0.0274281 	-2.35307e-05 	6.98526e-05
2.60436 	0.027365 	-1.78866e-05 	7.04929e-05
2.62588 	0.027284 	-1.21621e-05 	7.0348e-05
2.64674 	0.0271851 	-6.41623e-06 	6.978e-05
2.66693 	0.0270686 	-6.38609e-07 	6.93849e-05
2.68648 	0.0269351 	5.22536e-06 	6.9562e-05
2.70539 	0.0267844 	1.11371e-05 	6.9928e-05
2.72368 	0.0266154 	1.70939e-05 	6.97838e-05
2.74134 	0.026427 	2.30664e-05 	6.9288e-05
2.7584 	0.0262185 	2.89455e-05 	6.90678e-05
2.77487 	0.025991 	3.46333e-05 	6.90521e-05
2.79076 	0.0257449 	4.00854e-05 	6.85744e-05
2.80608 	0.0254798 	4.52491e-05 	6.70968e-05
2.82085 	0.0251964 	5.00467e-05 	6.45342e-05
2.83508 	0.0248945 	5.44104e-05 	6.1045e-05
2.84878 	0.0245736 	5.82403e-05 	5.71997e-05
2.86197 	0.0242333 	6.14558e-05 	5.39206e-05
2.87466 	0.0238742 	6.40217e-05 	5.17689e-05
2.88687 	0.0234947 	6.5823e-05 	5.05552e-05
2.8986 	0.0230917 	6.67867e-05 	4.98027e-05
2.90988 	0.0226632 	6.70015e-05 	4.91184e-05
2.92071 	0.0222053 	6.64994e-05 	4.80796e-05
2.93111 	0.0217121 	6.52063e-05 	4.63166e-05
2.94109 	0.0211755 	6.30129e-05 	4.3797e-05
2.95066 	0.0205842 	5.98794e-05 	4.08323e-05
2.95983 	0.0199223 	5.58721e-05 	3.78495e-05
2.96861 	0.0191687 	5.10415e-05 	3.50007e-05
2.97701 	0.018296 	4.55275e-05 	3.21741e-05
2.98503 	0.0172713 	3.9475e-05 	2.93538e-05
2.99267 	0.0160635 	3.3042e-05 	2.66412e-05
2.99992 	0.0146289 	2.64164e-05 	2.41015e-05
3.00678 	0.0128853 	1.985e-05 	2.15847e-05
3.01322 	0.0108117 	1.37569e-05 	1.8736e-05
3.01921 	0.00847684 	8.44712e-06 	1.52386e-05
3.02472 	0.00597409 	4.32136e-06 	1.1044e-05
3.02967 	0.00347428 	1.80543e-06 	6.52882e-06
